/*--------------------------------*- C++ -*----------------------------------*\
| =========                 |                                                 |
| \\      /  F ield         | OpenFOAM: The Open Source CFD Toolbox           |
|  \\    /   O peration     | Version:  v1812                                 |
|   \\  /    A nd           | Web:      www.OpenFOAM.com                      |
|    \\/     M anipulation  |                                                 |
\*---------------------------------------------------------------------------*/
FoamFile
{
    version     2.0;
    format      ascii;
    class       volScalarField;
    location    "5";
    object      p;
}
// * * * * * * * * * * * * * * * * * * * * * * * * * * * * * * * * * * * * * //

dimensions      [0 0 0 0 0 0 0];


internalField   nonuniform List<scalar> 
64
(
-4.26575
-3.14075
-2.39075
-2.01575
-2.01575
-2.39075
-3.14075
-4.26575
-3.14075
-2.01575
-1.26575
-0.890754
-0.890754
-1.26575
-2.01575
-3.14075
-2.39075
-1.26575
-0.515755
-0.140756
-0.140756
-0.515755
-1.26575
-2.39075
-2.01575
-0.890754
-0.140756
0.234242
0.234242
-0.140756
-0.890754
-2.01575
-2.01575
-0.890754
-0.140756
0.234242
0.234242
-0.140756
-0.890754
-2.01575
-2.39075
-1.26575
-0.515755
-0.140756
-0.140756
-0.515755
-1.26575
-2.39075
-3.14075
-2.01575
-1.26575
-0.890754
-0.890754
-1.26575
-2.01575
-3.14075
-4.26575
-3.14075
-2.39075
-2.01575
-2.01575
-2.39075
-3.14075
-4.26575
)
;

boundaryField
{
    backAndFront
    {
        type            empty;
    }
    dirichletBoundary
    {
        type            fixedGradient;
        gradient        uniform -12;
    }
}


// ************************************************************************* //
