/*--------------------------------*- C++ -*----------------------------------*\
| =========                 |                                                 |
| \\      /  F ield         | OpenFOAM: The Open Source CFD Toolbox           |
|  \\    /   O peration     | Version:  v1812                                 |
|   \\  /    A nd           | Web:      www.OpenFOAM.com                      |
|    \\/     M anipulation  |                                                 |
\*---------------------------------------------------------------------------*/
FoamFile
{
    version     2.0;
    format      ascii;
    class       volScalarField;
    location    "5";
    object      y;
}
// * * * * * * * * * * * * * * * * * * * * * * * * * * * * * * * * * * * * * //

dimensions      [0 0 0 0 0 0 0];


internalField   nonuniform List<scalar> 
64
(
0.994849
0.994809
0.994743
0.994681
0.994681
0.994743
0.994809
0.994849
0.994809
0.994753
0.994656
0.994537
0.994537
0.994656
0.994753
0.994809
0.994743
0.994656
0.99451
0.994454
0.994454
0.99451
0.994656
0.994743
0.994681
0.994537
0.994454
0.994497
0.994497
0.994454
0.994537
0.994681
0.994681
0.994537
0.994454
0.994497
0.994497
0.994454
0.994537
0.994681
0.994743
0.994656
0.99451
0.994454
0.994454
0.99451
0.994656
0.994743
0.994809
0.994753
0.994656
0.994537
0.994537
0.994656
0.994753
0.994809
0.994849
0.994809
0.994743
0.994681
0.994681
0.994743
0.994809
0.994849
)
;

boundaryField
{
    backAndFront
    {
        type            empty;
    }
    dirichletBoundary
    {
        type            zeroGradient;
    }
}


// ************************************************************************* //
