/*--------------------------------*- C++ -*----------------------------------*\
| =========                 |                                                 |
| \\      /  F ield         | OpenFOAM: The Open Source CFD Toolbox           |
|  \\    /   O peration     | Version:  v1812                                 |
|   \\  /    A nd           | Web:      www.OpenFOAM.com                      |
|    \\/     M anipulation  |                                                 |
\*---------------------------------------------------------------------------*/
FoamFile
{
    version     2.0;
    format      ascii;
    class       volScalarField;
    location    "5";
    object      yd;
}
// * * * * * * * * * * * * * * * * * * * * * * * * * * * * * * * * * * * * * //

dimensions      [0 0 0 0 0 0 0];


internalField   nonuniform List<scalar> 
64
(
-42.7396
-43.8646
-44.6146
-44.9896
-44.9896
-44.6146
-43.8646
-42.7396
-43.8646
-44.9896
-45.7396
-46.1146
-46.1146
-45.7396
-44.9896
-43.8646
-44.6146
-45.7396
-46.4896
-46.8646
-46.8646
-46.4896
-45.7396
-44.6146
-44.9896
-46.1146
-46.8646
-47.2396
-47.2396
-46.8646
-46.1146
-44.9896
-44.9896
-46.1146
-46.8646
-47.2396
-47.2396
-46.8646
-46.1146
-44.9896
-44.6146
-45.7396
-46.4896
-46.8646
-46.8646
-46.4896
-45.7396
-44.6146
-43.8646
-44.9896
-45.7396
-46.1146
-46.1146
-45.7396
-44.9896
-43.8646
-42.7396
-43.8646
-44.6146
-44.9896
-44.9896
-44.6146
-43.8646
-42.7396
)
;

boundaryField
{
    backAndFront
    {
        type            empty;
    }
    dirichletBoundary
    {
        type            zeroGradient;
    }
}


// ************************************************************************* //
