/*--------------------------------*- C++ -*----------------------------------*\
| =========                 |                                                 |
| \\      /  F ield         | OpenFOAM: The Open Source CFD Toolbox           |
|  \\    /   O peration     | Version:  v1812                                 |
|   \\  /    A nd           | Web:      www.OpenFOAM.com                      |
|    \\/     M anipulation  |                                                 |
\*---------------------------------------------------------------------------*/
FoamFile
{
    version     2.0;
    format      ascii;
    class       volScalarField;
    location    "2";
    object      p;
}
// * * * * * * * * * * * * * * * * * * * * * * * * * * * * * * * * * * * * * //

dimensions      [0 0 0 0 0 0 0];


internalField   nonuniform List<scalar> 
64
(
-4.3177
-3.19271
-2.44274
-2.06775
-2.06775
-2.44274
-3.19271
-4.3177
-3.19271
-2.06773
-1.31776
-0.942776
-0.942776
-1.31776
-2.06773
-3.19271
-2.44274
-1.31776
-0.567783
-0.192798
-0.192798
-0.567783
-1.31776
-2.44274
-2.06775
-0.942776
-0.192798
0.182193
0.182193
-0.192798
-0.942776
-2.06775
-2.06775
-0.942776
-0.192798
0.182193
0.182193
-0.192798
-0.942776
-2.06775
-2.44274
-1.31776
-0.567783
-0.192798
-0.192798
-0.567783
-1.31776
-2.44274
-3.19271
-2.06773
-1.31776
-0.942776
-0.942776
-1.31776
-2.06773
-3.19271
-4.3177
-3.19271
-2.44274
-2.06775
-2.06775
-2.44274
-3.19271
-4.3177
)
;

boundaryField
{
    backAndFront
    {
        type            empty;
    }
    dirichletBoundary
    {
        type            fixedGradient;
        gradient        uniform -12;
    }
}


// ************************************************************************* //
