/*--------------------------------*- C++ -*----------------------------------*\
| =========                 |                                                 |
| \\      /  F ield         | OpenFOAM: The Open Source CFD Toolbox           |
|  \\    /   O peration     | Version:  v1812                                 |
|   \\  /    A nd           | Web:      www.OpenFOAM.com                      |
|    \\/     M anipulation  |                                                 |
\*---------------------------------------------------------------------------*/
FoamFile
{
    version     2.0;
    format      ascii;
    class       volScalarField;
    location    "2";
    object      pDiff;
}
// * * * * * * * * * * * * * * * * * * * * * * * * * * * * * * * * * * * * * //

dimensions      [0 0 0 0 0 0 0];


internalField   nonuniform List<scalar> 
10000
(
0.0571219
0.057122
0.0571222
0.0571224
0.0571228
0.0571233
0.0571239
0.0571245
0.0571253
0.0571261
0.057127
0.057128
0.057129
0.0571301
0.0571313
0.0571326
0.0571339
0.0571352
0.0571366
0.057138
0.0571395
0.057141
0.0571425
0.0571441
0.0571456
0.0571472
0.0571487
0.0571502
0.0571518
0.0571533
0.0571547
0.0571562
0.0571576
0.057159
0.0571603
0.0571615
0.0571627
0.0571639
0.0571649
0.0571659
0.0571668
0.0571677
0.0571684
0.0571691
0.0571697
0.0571702
0.0571705
0.0571708
0.057171
0.0571711
0.0571711
0.057171
0.0571708
0.0571705
0.0571702
0.0571697
0.0571691
0.0571684
0.0571677
0.0571668
0.0571659
0.0571649
0.0571639
0.0571627
0.0571615
0.0571603
0.057159
0.0571576
0.0571562
0.0571547
0.0571533
0.0571518
0.0571502
0.0571487
0.0571472
0.0571456
0.0571441
0.0571425
0.057141
0.0571395
0.057138
0.0571366
0.0571352
0.0571339
0.0571326
0.0571313
0.0571301
0.057129
0.0571279
0.057127
0.0571261
0.0571252
0.0571245
0.0571239
0.0571233
0.0571228
0.0571224
0.0571221
0.057122
0.0571219
0.057122
0.0571221
0.0571223
0.0571225
0.0571229
0.0571234
0.057124
0.0571246
0.0571254
0.0571262
0.0571271
0.0571281
0.0571291
0.0571302
0.0571314
0.0571327
0.057134
0.0571353
0.0571367
0.0571382
0.0571396
0.0571411
0.0571426
0.0571442
0.0571457
0.0571473
0.0571488
0.0571504
0.0571519
0.0571534
0.0571549
0.0571563
0.0571577
0.0571591
0.0571604
0.0571617
0.0571629
0.057164
0.0571651
0.0571661
0.057167
0.0571678
0.0571686
0.0571692
0.0571698
0.0571703
0.0571707
0.057171
0.0571712
0.0571713
0.0571713
0.0571712
0.057171
0.0571707
0.0571703
0.0571698
0.0571692
0.0571686
0.0571678
0.057167
0.0571661
0.0571651
0.057164
0.0571629
0.0571617
0.0571604
0.0571591
0.0571577
0.0571563
0.0571549
0.0571534
0.0571519
0.0571504
0.0571488
0.0571473
0.0571457
0.0571442
0.0571426
0.0571411
0.0571396
0.0571381
0.0571367
0.0571353
0.057134
0.0571327
0.0571314
0.0571302
0.0571291
0.0571281
0.0571271
0.0571262
0.0571253
0.0571246
0.0571239
0.0571234
0.0571229
0.0571225
0.0571222
0.057122
0.057122
0.0571222
0.0571223
0.0571224
0.0571227
0.0571231
0.0571236
0.0571242
0.0571248
0.0571256
0.0571264
0.0571273
0.0571283
0.0571293
0.0571304
0.0571316
0.0571329
0.0571342
0.0571355
0.0571369
0.0571384
0.0571399
0.0571414
0.0571429
0.0571444
0.057146
0.0571475
0.0571491
0.0571506
0.0571521
0.0571536
0.0571551
0.0571566
0.057158
0.0571594
0.0571607
0.0571619
0.0571631
0.0571643
0.0571653
0.0571663
0.0571673
0.0571681
0.0571689
0.0571695
0.0571701
0.0571706
0.057171
0.0571713
0.0571715
0.0571716
0.0571716
0.0571715
0.0571713
0.057171
0.0571706
0.0571701
0.0571695
0.0571689
0.0571681
0.0571673
0.0571663
0.0571654
0.0571643
0.0571631
0.0571619
0.0571607
0.0571594
0.057158
0.0571566
0.0571551
0.0571536
0.0571521
0.0571506
0.0571491
0.0571475
0.057146
0.0571444
0.0571429
0.0571413
0.0571398
0.0571384
0.0571369
0.0571355
0.0571342
0.0571329
0.0571316
0.0571304
0.0571293
0.0571283
0.0571273
0.0571264
0.0571255
0.0571248
0.0571241
0.0571236
0.0571231
0.0571227
0.0571224
0.0571222
0.0571221
0.0571224
0.0571225
0.0571227
0.057123
0.0571234
0.0571239
0.0571244
0.0571251
0.0571259
0.0571267
0.0571276
0.0571286
0.0571296
0.0571308
0.0571319
0.0571332
0.0571345
0.0571359
0.0571373
0.0571387
0.0571402
0.0571417
0.0571432
0.0571448
0.0571463
0.0571479
0.0571494
0.057151
0.0571525
0.057154
0.0571555
0.057157
0.0571584
0.0571597
0.0571611
0.0571623
0.0571635
0.0571647
0.0571658
0.0571668
0.0571677
0.0571685
0.0571693
0.0571699
0.0571705
0.057171
0.0571714
0.0571717
0.0571719
0.057172
0.057172
0.0571719
0.0571717
0.0571714
0.057171
0.0571705
0.0571699
0.0571693
0.0571685
0.0571677
0.0571668
0.0571658
0.0571647
0.0571635
0.0571623
0.0571611
0.0571598
0.0571584
0.057157
0.0571555
0.057154
0.0571525
0.057151
0.0571494
0.0571479
0.0571463
0.0571448
0.0571432
0.0571417
0.0571402
0.0571387
0.0571373
0.0571359
0.0571345
0.0571332
0.0571319
0.0571307
0.0571296
0.0571286
0.0571276
0.0571267
0.0571258
0.0571251
0.0571244
0.0571239
0.0571234
0.057123
0.0571227
0.0571225
0.0571224
0.0571228
0.0571229
0.0571231
0.0571234
0.0571238
0.0571243
0.0571248
0.0571255
0.0571262
0.0571271
0.057128
0.057129
0.05713
0.0571312
0.0571324
0.0571336
0.0571349
0.0571363
0.0571377
0.0571392
0.0571406
0.0571422
0.0571437
0.0571452
0.0571468
0.0571484
0.0571499
0.0571515
0.057153
0.0571545
0.057156
0.0571575
0.0571589
0.0571603
0.0571616
0.0571629
0.0571641
0.0571652
0.0571663
0.0571673
0.0571682
0.0571691
0.0571698
0.0571705
0.0571711
0.0571716
0.057172
0.0571722
0.0571724
0.0571725
0.0571725
0.0571724
0.0571723
0.057172
0.0571716
0.0571711
0.0571705
0.0571698
0.0571691
0.0571682
0.0571673
0.0571663
0.0571652
0.0571641
0.0571629
0.0571616
0.0571603
0.0571589
0.0571575
0.057156
0.0571545
0.057153
0.0571515
0.0571499
0.0571484
0.0571468
0.0571452
0.0571437
0.0571422
0.0571406
0.0571392
0.0571377
0.0571363
0.0571349
0.0571336
0.0571324
0.0571312
0.05713
0.057129
0.057128
0.0571271
0.0571262
0.0571255
0.0571248
0.0571243
0.0571238
0.0571234
0.0571231
0.0571229
0.0571228
0.0571233
0.0571234
0.0571236
0.0571239
0.0571243
0.0571247
0.0571253
0.057126
0.0571267
0.0571276
0.0571285
0.0571295
0.0571305
0.0571317
0.0571329
0.0571342
0.0571355
0.0571368
0.0571383
0.0571397
0.0571412
0.0571427
0.0571443
0.0571458
0.0571474
0.057149
0.0571505
0.0571521
0.0571536
0.0571552
0.0571567
0.0571581
0.0571595
0.0571609
0.0571623
0.0571635
0.0571647
0.0571659
0.057167
0.057168
0.0571689
0.0571698
0.0571705
0.0571712
0.0571718
0.0571723
0.0571726
0.0571729
0.0571731
0.0571732
0.0571732
0.0571731
0.0571729
0.0571727
0.0571723
0.0571718
0.0571712
0.0571705
0.0571698
0.0571689
0.057168
0.057167
0.0571659
0.0571648
0.0571635
0.0571623
0.0571609
0.0571595
0.0571581
0.0571567
0.0571552
0.0571536
0.0571521
0.0571505
0.057149
0.0571474
0.0571458
0.0571443
0.0571427
0.0571412
0.0571397
0.0571383
0.0571368
0.0571355
0.0571341
0.0571329
0.0571317
0.0571305
0.0571295
0.0571285
0.0571276
0.0571267
0.057126
0.0571253
0.0571247
0.0571243
0.0571239
0.0571236
0.0571234
0.0571233
0.0571239
0.057124
0.0571242
0.0571244
0.0571248
0.0571253
0.0571259
0.0571266
0.0571273
0.0571282
0.0571291
0.0571301
0.0571312
0.0571323
0.0571335
0.0571348
0.0571361
0.0571375
0.0571389
0.0571404
0.0571419
0.0571434
0.057145
0.0571465
0.0571481
0.0571497
0.0571512
0.0571528
0.0571544
0.0571559
0.0571574
0.0571589
0.0571603
0.0571617
0.057163
0.0571643
0.0571655
0.0571667
0.0571678
0.0571688
0.0571697
0.0571706
0.0571713
0.057172
0.0571726
0.0571731
0.0571735
0.0571738
0.057174
0.0571741
0.0571741
0.057174
0.0571738
0.0571735
0.0571731
0.0571726
0.057172
0.0571713
0.0571706
0.0571697
0.0571688
0.0571678
0.0571667
0.0571655
0.0571643
0.057163
0.0571617
0.0571603
0.0571589
0.0571574
0.0571559
0.0571544
0.0571528
0.0571513
0.0571497
0.0571481
0.0571465
0.057145
0.0571434
0.0571419
0.0571404
0.0571389
0.0571375
0.0571361
0.0571348
0.0571335
0.0571323
0.0571311
0.0571301
0.0571291
0.0571282
0.0571273
0.0571266
0.0571259
0.0571253
0.0571248
0.0571244
0.0571241
0.0571239
0.0571239
0.0571245
0.0571246
0.0571248
0.0571251
0.0571255
0.057126
0.0571266
0.0571272
0.057128
0.0571288
0.0571298
0.0571308
0.0571319
0.057133
0.0571342
0.0571355
0.0571368
0.0571382
0.0571397
0.0571411
0.0571427
0.0571442
0.0571457
0.0571473
0.0571489
0.0571505
0.0571521
0.0571537
0.0571552
0.0571568
0.0571583
0.0571598
0.0571612
0.0571626
0.0571639
0.0571652
0.0571665
0.0571676
0.0571687
0.0571697
0.0571707
0.0571715
0.0571723
0.057173
0.0571735
0.057174
0.0571744
0.0571747
0.0571749
0.057175
0.057175
0.0571749
0.0571747
0.0571744
0.057174
0.0571735
0.057173
0.0571723
0.0571715
0.0571707
0.0571697
0.0571687
0.0571676
0.0571665
0.0571652
0.0571639
0.0571626
0.0571612
0.0571598
0.0571583
0.0571568
0.0571552
0.0571537
0.0571521
0.0571505
0.0571489
0.0571473
0.0571457
0.0571442
0.0571426
0.0571411
0.0571397
0.0571382
0.0571368
0.0571355
0.0571342
0.057133
0.0571319
0.0571308
0.0571298
0.0571288
0.057128
0.0571272
0.0571266
0.057126
0.0571255
0.0571251
0.0571248
0.0571246
0.0571245
0.0571253
0.0571254
0.0571256
0.0571259
0.0571262
0.0571267
0.0571273
0.057128
0.0571288
0.0571296
0.0571306
0.0571316
0.0571327
0.0571338
0.057135
0.0571363
0.0571377
0.0571391
0.0571405
0.057142
0.0571435
0.0571451
0.0571466
0.0571482
0.0571498
0.0571514
0.057153
0.0571546
0.0571562
0.0571577
0.0571593
0.0571607
0.0571622
0.0571636
0.057165
0.0571662
0.0571675
0.0571687
0.0571697
0.0571708
0.0571717
0.0571726
0.0571733
0.057174
0.0571746
0.0571751
0.0571755
0.0571758
0.057176
0.0571761
0.0571761
0.057176
0.0571758
0.0571755
0.0571751
0.0571746
0.057174
0.0571733
0.0571726
0.0571717
0.0571708
0.0571698
0.0571687
0.0571675
0.0571663
0.057165
0.0571636
0.0571622
0.0571608
0.0571593
0.0571577
0.0571562
0.0571546
0.057153
0.0571514
0.0571498
0.0571482
0.0571466
0.0571451
0.0571435
0.057142
0.0571405
0.0571391
0.0571377
0.0571363
0.057135
0.0571338
0.0571326
0.0571316
0.0571305
0.0571296
0.0571288
0.057128
0.0571273
0.0571267
0.0571262
0.0571258
0.0571255
0.0571253
0.0571252
0.0571261
0.0571262
0.0571264
0.0571267
0.0571271
0.0571276
0.0571282
0.0571288
0.0571296
0.0571305
0.0571314
0.0571324
0.0571335
0.0571347
0.057136
0.0571373
0.0571386
0.05714
0.0571415
0.057143
0.0571445
0.0571461
0.0571476
0.0571492
0.0571509
0.0571525
0.0571541
0.0571557
0.0571573
0.0571588
0.0571603
0.0571618
0.0571633
0.0571647
0.0571661
0.0571674
0.0571686
0.0571698
0.0571709
0.0571719
0.0571729
0.0571737
0.0571745
0.0571752
0.0571758
0.0571763
0.0571767
0.057177
0.0571772
0.0571773
0.0571773
0.0571772
0.057177
0.0571767
0.0571763
0.0571758
0.0571752
0.0571745
0.0571737
0.0571729
0.0571719
0.0571709
0.0571698
0.0571686
0.0571674
0.0571661
0.0571647
0.0571633
0.0571619
0.0571604
0.0571588
0.0571573
0.0571557
0.0571541
0.0571525
0.0571509
0.0571492
0.0571476
0.0571461
0.0571445
0.057143
0.0571415
0.05714
0.0571386
0.0571372
0.0571359
0.0571347
0.0571335
0.0571324
0.0571314
0.0571305
0.0571296
0.0571288
0.0571282
0.0571276
0.0571271
0.0571267
0.0571264
0.0571262
0.0571261
0.057127
0.0571271
0.0571273
0.0571276
0.057128
0.0571285
0.0571291
0.0571298
0.0571306
0.0571314
0.0571324
0.0571334
0.0571345
0.0571357
0.0571369
0.0571383
0.0571396
0.057141
0.0571425
0.057144
0.0571456
0.0571471
0.0571487
0.0571503
0.057152
0.0571536
0.0571552
0.0571568
0.0571584
0.05716
0.0571615
0.0571631
0.0571645
0.0571659
0.0571673
0.0571686
0.0571699
0.0571711
0.0571722
0.0571732
0.0571741
0.057175
0.0571758
0.0571765
0.0571771
0.0571776
0.057178
0.0571783
0.0571785
0.0571786
0.0571786
0.0571785
0.0571783
0.057178
0.0571776
0.0571771
0.0571765
0.0571758
0.057175
0.0571742
0.0571732
0.0571722
0.0571711
0.0571699
0.0571686
0.0571673
0.057166
0.0571645
0.0571631
0.0571616
0.05716
0.0571584
0.0571568
0.0571552
0.0571536
0.057152
0.0571504
0.0571487
0.0571471
0.0571456
0.057144
0.0571425
0.057141
0.0571396
0.0571382
0.0571369
0.0571357
0.0571345
0.0571334
0.0571324
0.0571314
0.0571305
0.0571298
0.0571291
0.0571285
0.057128
0.0571276
0.0571273
0.0571271
0.057127
0.057128
0.0571281
0.0571283
0.0571286
0.057129
0.0571295
0.0571301
0.0571308
0.0571316
0.0571324
0.0571334
0.0571344
0.0571356
0.0571368
0.057138
0.0571393
0.0571407
0.0571422
0.0571436
0.0571452
0.0571467
0.0571483
0.0571499
0.0571515
0.0571532
0.0571548
0.0571565
0.0571581
0.0571597
0.0571613
0.0571628
0.0571644
0.0571658
0.0571673
0.0571686
0.05717
0.0571712
0.0571724
0.0571735
0.0571746
0.0571755
0.0571764
0.0571772
0.0571779
0.0571785
0.057179
0.0571794
0.0571797
0.0571799
0.05718
0.05718
0.0571799
0.0571797
0.0571794
0.057179
0.0571785
0.0571779
0.0571772
0.0571764
0.0571755
0.0571746
0.0571735
0.0571724
0.0571712
0.05717
0.0571687
0.0571673
0.0571658
0.0571644
0.0571628
0.0571613
0.0571597
0.0571581
0.0571565
0.0571548
0.0571532
0.0571516
0.0571499
0.0571483
0.0571467
0.0571452
0.0571436
0.0571422
0.0571407
0.0571393
0.057138
0.0571368
0.0571356
0.0571344
0.0571334
0.0571324
0.0571316
0.0571308
0.0571301
0.0571295
0.057129
0.0571286
0.0571283
0.0571281
0.0571279
0.057129
0.0571291
0.0571293
0.0571296
0.05713
0.0571305
0.0571312
0.0571319
0.0571327
0.0571335
0.0571345
0.0571356
0.0571367
0.0571379
0.0571392
0.0571405
0.0571419
0.0571434
0.0571449
0.0571464
0.057148
0.0571496
0.0571512
0.0571528
0.0571545
0.0571561
0.0571578
0.0571594
0.057161
0.0571626
0.0571642
0.0571657
0.0571672
0.0571687
0.0571701
0.0571714
0.0571727
0.0571739
0.057175
0.057176
0.057177
0.0571779
0.0571786
0.0571793
0.0571799
0.0571804
0.0571808
0.0571811
0.0571813
0.0571814
0.0571814
0.0571813
0.0571811
0.0571808
0.0571804
0.0571799
0.0571793
0.0571786
0.0571779
0.057177
0.057176
0.057175
0.0571739
0.0571727
0.0571714
0.0571701
0.0571687
0.0571672
0.0571658
0.0571642
0.0571627
0.0571611
0.0571594
0.0571578
0.0571561
0.0571545
0.0571528
0.0571512
0.0571496
0.057148
0.0571464
0.0571449
0.0571434
0.0571419
0.0571405
0.0571392
0.0571379
0.0571367
0.0571356
0.0571345
0.0571335
0.0571326
0.0571319
0.0571312
0.0571305
0.05713
0.0571296
0.0571293
0.0571291
0.057129
0.0571301
0.0571302
0.0571304
0.0571308
0.0571312
0.0571317
0.0571323
0.057133
0.0571338
0.0571347
0.0571357
0.0571368
0.0571379
0.0571391
0.0571404
0.0571418
0.0571432
0.0571446
0.0571461
0.0571477
0.0571493
0.0571509
0.0571525
0.0571542
0.0571559
0.0571575
0.0571592
0.0571609
0.0571625
0.0571641
0.0571657
0.0571672
0.0571687
0.0571702
0.0571716
0.0571729
0.0571742
0.0571754
0.0571765
0.0571776
0.0571785
0.0571794
0.0571802
0.0571809
0.0571815
0.057182
0.0571824
0.0571827
0.0571829
0.057183
0.057183
0.0571829
0.0571827
0.0571824
0.057182
0.0571815
0.0571809
0.0571802
0.0571794
0.0571785
0.0571776
0.0571765
0.0571754
0.0571742
0.0571729
0.0571716
0.0571702
0.0571687
0.0571672
0.0571657
0.0571641
0.0571625
0.0571609
0.0571592
0.0571575
0.0571559
0.0571542
0.0571526
0.0571509
0.0571493
0.0571477
0.0571461
0.0571446
0.0571432
0.0571418
0.0571404
0.0571391
0.0571379
0.0571368
0.0571357
0.0571347
0.0571338
0.057133
0.0571323
0.0571317
0.0571312
0.0571307
0.0571304
0.0571302
0.0571301
0.0571313
0.0571314
0.0571316
0.0571319
0.0571324
0.0571329
0.0571335
0.0571342
0.057135
0.057136
0.0571369
0.057138
0.0571392
0.0571404
0.0571417
0.0571431
0.0571445
0.057146
0.0571475
0.0571491
0.0571507
0.0571523
0.057154
0.0571557
0.0571573
0.057159
0.0571607
0.0571624
0.057164
0.0571656
0.0571672
0.0571688
0.0571703
0.0571717
0.0571731
0.0571745
0.0571758
0.057177
0.0571781
0.0571792
0.0571801
0.057181
0.0571818
0.0571825
0.0571831
0.0571836
0.057184
0.0571843
0.0571845
0.0571846
0.0571846
0.0571845
0.0571843
0.057184
0.0571836
0.0571831
0.0571825
0.0571818
0.057181
0.0571801
0.0571792
0.0571781
0.057177
0.0571758
0.0571745
0.0571732
0.0571718
0.0571703
0.0571688
0.0571672
0.0571656
0.057164
0.0571624
0.0571607
0.057159
0.0571573
0.0571557
0.057154
0.0571523
0.0571507
0.0571491
0.0571475
0.057146
0.0571445
0.0571431
0.0571417
0.0571404
0.0571392
0.057138
0.0571369
0.0571359
0.057135
0.0571342
0.0571335
0.0571329
0.0571324
0.0571319
0.0571316
0.0571314
0.0571313
0.0571326
0.0571327
0.0571329
0.0571332
0.0571336
0.0571342
0.0571348
0.0571355
0.0571363
0.0571373
0.0571383
0.0571393
0.0571405
0.0571418
0.0571431
0.0571445
0.0571459
0.0571474
0.0571489
0.0571505
0.0571522
0.0571538
0.0571555
0.0571572
0.0571589
0.0571606
0.0571623
0.0571639
0.0571656
0.0571672
0.0571688
0.0571704
0.0571719
0.0571734
0.0571748
0.0571761
0.0571774
0.0571786
0.0571798
0.0571808
0.0571818
0.0571827
0.0571835
0.0571842
0.0571848
0.0571853
0.0571857
0.057186
0.0571862
0.0571863
0.0571863
0.0571862
0.057186
0.0571857
0.0571853
0.0571848
0.0571842
0.0571835
0.0571827
0.0571818
0.0571808
0.0571798
0.0571786
0.0571774
0.0571762
0.0571748
0.0571734
0.0571719
0.0571704
0.0571688
0.0571672
0.0571656
0.0571639
0.0571623
0.0571606
0.0571589
0.0571572
0.0571555
0.0571538
0.0571522
0.0571505
0.0571489
0.0571474
0.0571459
0.0571445
0.0571431
0.0571418
0.0571405
0.0571393
0.0571383
0.0571372
0.0571363
0.0571355
0.0571348
0.0571341
0.0571336
0.0571332
0.0571329
0.0571327
0.0571326
0.0571339
0.057134
0.0571342
0.0571345
0.0571349
0.0571355
0.0571361
0.0571368
0.0571377
0.0571386
0.0571396
0.0571407
0.0571419
0.0571432
0.0571445
0.0571459
0.0571474
0.0571489
0.0571504
0.057152
0.0571537
0.0571553
0.057157
0.0571587
0.0571605
0.0571622
0.0571639
0.0571656
0.0571672
0.0571689
0.0571705
0.0571721
0.0571736
0.0571751
0.0571765
0.0571778
0.0571791
0.0571803
0.0571815
0.0571825
0.0571835
0.0571844
0.0571852
0.0571859
0.0571865
0.057187
0.0571874
0.0571877
0.0571879
0.057188
0.057188
0.0571879
0.0571877
0.0571874
0.057187
0.0571865
0.0571859
0.0571852
0.0571844
0.0571835
0.0571825
0.0571815
0.0571804
0.0571791
0.0571779
0.0571765
0.0571751
0.0571736
0.0571721
0.0571705
0.0571689
0.0571672
0.0571656
0.0571639
0.0571622
0.0571605
0.0571587
0.057157
0.0571553
0.0571537
0.057152
0.0571504
0.0571489
0.0571474
0.0571459
0.0571445
0.0571432
0.0571419
0.0571407
0.0571396
0.0571386
0.0571377
0.0571368
0.0571361
0.0571355
0.0571349
0.0571345
0.0571342
0.057134
0.0571339
0.0571352
0.0571353
0.0571355
0.0571359
0.0571363
0.0571368
0.0571375
0.0571382
0.0571391
0.05714
0.057141
0.0571422
0.0571434
0.0571446
0.057146
0.0571474
0.0571489
0.0571504
0.057152
0.0571536
0.0571553
0.0571569
0.0571587
0.0571604
0.0571621
0.0571638
0.0571655
0.0571673
0.0571689
0.0571706
0.0571722
0.0571738
0.0571753
0.0571768
0.0571782
0.0571796
0.0571809
0.0571821
0.0571832
0.0571843
0.0571852
0.0571861
0.0571869
0.0571906
0.0571912
0.0571917
0.0571921
0.0571924
0.0571926
0.0571927
0.0571927
0.0571926
0.0571924
0.0571921
0.0571917
0.0571912
0.0571906
0.0571869
0.0571861
0.0571853
0.0571843
0.0571832
0.0571821
0.0571809
0.0571796
0.0571782
0.0571768
0.0571753
0.0571738
0.0571722
0.0571706
0.0571689
0.0571673
0.0571656
0.0571638
0.0571621
0.0571604
0.0571587
0.0571569
0.0571553
0.0571536
0.057152
0.0571504
0.0571489
0.0571474
0.057146
0.0571446
0.0571434
0.0571422
0.057141
0.05714
0.0571391
0.0571382
0.0571375
0.0571368
0.0571363
0.0571359
0.0571355
0.0571353
0.0571352
0.0571366
0.0571367
0.0571369
0.0571373
0.0571377
0.0571383
0.0571389
0.0571397
0.0571405
0.0571415
0.0571425
0.0571436
0.0571449
0.0571461
0.0571475
0.0571489
0.0571504
0.057152
0.0571536
0.0571552
0.0571569
0.0571586
0.0571603
0.0571621
0.0571638
0.0571655
0.0571673
0.057169
0.0571707
0.0571724
0.057174
0.0571756
0.0571771
0.0571786
0.05718
0.0571814
0.0571827
0.0571839
0.057185
0.0571891
0.05719
0.0571909
0.0571917
0.0571924
0.057193
0.0571935
0.0571938
0.0571941
0.0571944
0.0571945
0.0571945
0.0571944
0.0571942
0.0571939
0.0571935
0.057193
0.0571924
0.0571917
0.0571909
0.05719
0.0571891
0.057185
0.0571839
0.0571827
0.0571814
0.05718
0.0571786
0.0571771
0.0571756
0.057174
0.0571724
0.0571707
0.057169
0.0571673
0.0571655
0.0571638
0.0571621
0.0571603
0.0571586
0.0571569
0.0571552
0.0571536
0.057152
0.0571504
0.0571489
0.0571475
0.0571461
0.0571449
0.0571436
0.0571425
0.0571415
0.0571405
0.0571397
0.0571389
0.0571383
0.0571377
0.0571373
0.0571369
0.0571367
0.0571366
0.057138
0.0571382
0.0571384
0.0571387
0.0571392
0.0571397
0.0571404
0.0571411
0.057142
0.057143
0.057144
0.0571452
0.0571464
0.0571477
0.0571491
0.0571505
0.057152
0.0571536
0.0571552
0.0571569
0.0571586
0.0571603
0.057162
0.0571638
0.0571655
0.0571673
0.057169
0.0571708
0.0571725
0.0571741
0.0571758
0.0571774
0.0571789
0.0571804
0.0571818
0.0571832
0.0571845
0.0571887
0.0571898
0.0571908
0.0571918
0.0571927
0.0571934
0.0571941
0.0571947
0.0571952
0.0571956
0.0571959
0.0571961
0.0571962
0.0571962
0.0571961
0.0571959
0.0571956
0.0571952
0.0571947
0.0571941
0.0571934
0.0571927
0.0571918
0.0571908
0.0571898
0.0571887
0.0571845
0.0571832
0.0571818
0.0571804
0.0571789
0.0571774
0.0571758
0.0571741
0.0571725
0.0571708
0.057169
0.0571673
0.0571655
0.0571638
0.057162
0.0571603
0.0571586
0.0571569
0.0571552
0.0571536
0.057152
0.0571505
0.0571491
0.0571477
0.0571464
0.0571452
0.057144
0.057143
0.057142
0.0571411
0.0571404
0.0571397
0.0571392
0.0571387
0.0571384
0.0571382
0.057138
0.0571395
0.0571396
0.0571399
0.0571402
0.0571406
0.0571412
0.0571419
0.0571427
0.0571435
0.0571445
0.0571456
0.0571467
0.057148
0.0571493
0.0571507
0.0571522
0.0571537
0.0571553
0.0571569
0.0571586
0.0571603
0.057162
0.0571638
0.0571655
0.0571673
0.0571691
0.0571708
0.0571726
0.0571743
0.057176
0.0571776
0.0571792
0.0571807
0.0571822
0.0571866
0.057188
0.0571893
0.0571905
0.0571916
0.0571926
0.0571936
0.0571944
0.0571952
0.0571959
0.0571964
0.0571969
0.0571973
0.0571976
0.0571978
0.0571979
0.0571979
0.0571978
0.0571976
0.0571973
0.0571969
0.0571964
0.0571959
0.0571952
0.0571944
0.0571936
0.0571926
0.0571916
0.0571905
0.0571893
0.057188
0.0571866
0.0571822
0.0571807
0.0571792
0.0571776
0.057176
0.0571743
0.0571726
0.0571708
0.0571691
0.0571673
0.0571655
0.0571638
0.057162
0.0571603
0.0571586
0.0571569
0.0571553
0.0571537
0.0571522
0.0571507
0.0571493
0.057148
0.0571467
0.0571456
0.0571445
0.0571435
0.0571426
0.0571419
0.0571412
0.0571406
0.0571402
0.0571398
0.0571396
0.0571395
0.057141
0.0571411
0.0571414
0.0571417
0.0571422
0.0571427
0.0571434
0.0571442
0.0571451
0.0571461
0.0571471
0.0571483
0.0571496
0.0571509
0.0571523
0.0571538
0.0571553
0.0571569
0.0571586
0.0571603
0.057162
0.0571638
0.0571655
0.0571673
0.0571691
0.0571709
0.0571726
0.0571744
0.0571761
0.0571778
0.0571794
0.057181
0.0571825
0.057187
0.0571884
0.0571898
0.057191
0.0571922
0.0571933
0.0571944
0.0571953
0.0571961
0.0571969
0.0571976
0.0571981
0.0571986
0.057199
0.0571993
0.0571995
0.0571996
0.0571996
0.0571995
0.0571993
0.057199
0.0571986
0.0571981
0.0571976
0.0571969
0.0571962
0.0571953
0.0571944
0.0571933
0.0571922
0.0571911
0.0571898
0.0571884
0.057187
0.0571826
0.057181
0.0571794
0.0571778
0.0571761
0.0571744
0.0571726
0.0571709
0.0571691
0.0571673
0.0571655
0.0571638
0.057162
0.0571603
0.0571586
0.0571569
0.0571553
0.0571538
0.0571523
0.0571509
0.0571496
0.0571483
0.0571471
0.0571461
0.0571451
0.0571442
0.0571434
0.0571427
0.0571422
0.0571417
0.0571413
0.0571411
0.057141
0.0571425
0.0571426
0.0571429
0.0571432
0.0571437
0.0571443
0.057145
0.0571457
0.0571466
0.0571476
0.0571487
0.0571499
0.0571512
0.0571525
0.057154
0.0571555
0.057157
0.0571587
0.0571603
0.057162
0.0571638
0.0571655
0.0571673
0.0571691
0.0571709
0.0571727
0.0571745
0.0571762
0.0571779
0.0571796
0.0571812
0.0571858
0.0571874
0.0571888
0.0571902
0.0571916
0.0571928
0.057194
0.0571951
0.0571961
0.057197
0.0571979
0.0571986
0.0571993
0.0571998
0.0572003
0.0572007
0.057201
0.0572011
0.0572012
0.0572012
0.0572011
0.057201
0.0572007
0.0572003
0.0571998
0.0571993
0.0571986
0.0571979
0.057197
0.0571961
0.0571951
0.057194
0.0571928
0.0571916
0.0571902
0.0571888
0.0571874
0.0571858
0.0571813
0.0571796
0.0571779
0.0571762
0.0571745
0.0571727
0.0571709
0.0571691
0.0571673
0.0571655
0.0571638
0.057162
0.0571603
0.0571587
0.057157
0.0571555
0.057154
0.0571526
0.0571512
0.0571499
0.0571487
0.0571476
0.0571466
0.0571457
0.057145
0.0571443
0.0571437
0.0571432
0.0571429
0.0571426
0.0571425
0.0571441
0.0571442
0.0571444
0.0571448
0.0571452
0.0571458
0.0571465
0.0571473
0.0571482
0.0571492
0.0571503
0.0571515
0.0571528
0.0571542
0.0571557
0.0571572
0.0571587
0.0571604
0.0571621
0.0571638
0.0571655
0.0571673
0.0571691
0.0571709
0.0571727
0.0571745
0.0571763
0.057178
0.0571797
0.0571814
0.0571861
0.0571876
0.0571892
0.0571906
0.057192
0.0571933
0.0571946
0.0571957
0.0571968
0.0571978
0.0571987
0.0571995
0.0572003
0.0572009
0.0572015
0.0572019
0.0572023
0.0572026
0.0572028
0.0572028
0.0572028
0.0572028
0.0572026
0.0572023
0.0572019
0.0572015
0.0572009
0.0572003
0.0571995
0.0571987
0.0571978
0.0571968
0.0571957
0.0571946
0.0571933
0.057192
0.0571906
0.0571892
0.0571876
0.0571861
0.0571814
0.0571798
0.057178
0.0571763
0.0571745
0.0571727
0.0571709
0.0571691
0.0571673
0.0571655
0.0571638
0.0571621
0.0571604
0.0571587
0.0571572
0.0571557
0.0571542
0.0571528
0.0571516
0.0571504
0.0571492
0.0571482
0.0571473
0.0571465
0.0571458
0.0571452
0.0571448
0.0571444
0.0571442
0.0571441
0.0571456
0.0571457
0.057146
0.0571463
0.0571468
0.0571474
0.0571481
0.0571489
0.0571498
0.0571509
0.057152
0.0571532
0.0571545
0.0571559
0.0571573
0.0571589
0.0571605
0.0571621
0.0571638
0.0571655
0.0571673
0.0571691
0.0571709
0.0571727
0.0571745
0.0571763
0.0571781
0.0571798
0.0571816
0.0571862
0.0571879
0.0571894
0.0571909
0.0571924
0.0571937
0.057195
0.0571963
0.0571974
0.0571985
0.0571995
0.0572003
0.0572012
0.0572019
0.0572025
0.057203
0.0572035
0.0572039
0.0572041
0.0572043
0.0572044
0.0572044
0.0572043
0.0572041
0.0572039
0.0572035
0.057203
0.0572025
0.0572019
0.0572012
0.0572004
0.0571995
0.0571985
0.0571974
0.0571963
0.0571951
0.0571938
0.0571924
0.0571909
0.0571894
0.0571879
0.0571862
0.0571816
0.0571798
0.0571781
0.0571763
0.0571745
0.0571727
0.0571709
0.0571691
0.0571673
0.0571655
0.0571638
0.0571621
0.0571605
0.0571589
0.0571573
0.0571559
0.0571545
0.0571532
0.057152
0.0571509
0.0571498
0.0571489
0.0571481
0.0571474
0.0571468
0.0571463
0.057146
0.0571457
0.0571456
0.0571472
0.0571473
0.0571475
0.0571479
0.0571484
0.057149
0.0571497
0.0571505
0.0571514
0.0571525
0.0571536
0.0571548
0.0571561
0.0571575
0.057159
0.0571606
0.0571622
0.0571638
0.0571655
0.0571673
0.0571691
0.0571709
0.0571727
0.0571745
0.0571763
0.0571781
0.0571799
0.0571846
0.0571863
0.057188
0.0571896
0.0571912
0.0571927
0.0571941
0.0571955
0.0571967
0.0571979
0.0571991
0.0572001
0.0572011
0.0572019
0.0572027
0.0572034
0.057204
0.0572046
0.057205
0.0572054
0.0572056
0.0572058
0.0572059
0.0572059
0.0572058
0.0572056
0.0572054
0.057205
0.0572046
0.057204
0.0572034
0.0572027
0.0572019
0.0572011
0.0572001
0.0571991
0.0571979
0.0571967
0.0571955
0.0571941
0.0571927
0.0571912
0.0571896
0.057188
0.0571864
0.0571846
0.0571799
0.0571781
0.0571763
0.0571745
0.0571727
0.0571709
0.0571691
0.0571673
0.0571655
0.0571638
0.0571622
0.0571606
0.057159
0.0571575
0.0571561
0.0571548
0.0571536
0.0571525
0.0571514
0.0571505
0.0571497
0.057149
0.0571484
0.0571479
0.0571475
0.0571473
0.0571472
0.0571487
0.0571488
0.0571491
0.0571494
0.0571499
0.0571505
0.0571512
0.0571521
0.057153
0.0571541
0.0571552
0.0571565
0.0571578
0.0571592
0.0571607
0.0571623
0.0571639
0.0571655
0.0571673
0.057169
0.0571708
0.0571726
0.0571745
0.0571763
0.0571781
0.0571799
0.0571847
0.0571864
0.0571881
0.0571898
0.0571914
0.0571929
0.0571944
0.0571958
0.0571971
0.0571984
0.0571995
0.0572006
0.0572017
0.0572026
0.0572035
0.0572042
0.0572049
0.0572055
0.057206
0.0572065
0.0572068
0.0572071
0.0572072
0.0572073
0.0572073
0.0572072
0.0572071
0.0572068
0.0572065
0.057206
0.0572055
0.0572049
0.0572042
0.0572035
0.0572026
0.0572017
0.0572007
0.0571996
0.0571984
0.0571971
0.0571958
0.0571944
0.0571929
0.0571914
0.0571898
0.0571881
0.0571864
0.0571847
0.0571799
0.0571781
0.0571763
0.0571745
0.0571726
0.0571708
0.057169
0.0571673
0.0571656
0.0571639
0.0571623
0.0571607
0.0571592
0.0571578
0.0571565
0.0571552
0.0571541
0.057153
0.0571521
0.0571513
0.0571505
0.0571499
0.0571494
0.0571491
0.0571488
0.0571487
0.0571502
0.0571504
0.0571506
0.057151
0.0571515
0.0571521
0.0571528
0.0571537
0.0571546
0.0571557
0.0571568
0.0571581
0.0571594
0.0571609
0.0571624
0.0571639
0.0571656
0.0571673
0.057169
0.0571708
0.0571726
0.0571744
0.0571762
0.057178
0.0571798
0.0571846
0.0571864
0.0571881
0.0571898
0.0571915
0.057193
0.0571946
0.057196
0.0571974
0.0571987
0.0571999
0.0572011
0.0572022
0.0572032
0.0572041
0.0572049
0.0572057
0.0572063
0.0572069
0.0572074
0.0572078
0.0572082
0.0572084
0.0572086
0.0572087
0.0572087
0.0572086
0.0572084
0.0572082
0.0572078
0.0572074
0.0572069
0.0572063
0.0572057
0.0572049
0.0572041
0.0572032
0.0572022
0.0572011
0.0572
0.0571987
0.0571974
0.057196
0.0571946
0.057193
0.0571915
0.0571898
0.0571881
0.0571864
0.0571846
0.0571798
0.057178
0.0571762
0.0571744
0.0571726
0.0571708
0.057169
0.0571673
0.0571656
0.0571639
0.0571624
0.0571609
0.0571594
0.0571581
0.0571568
0.0571557
0.0571546
0.0571537
0.0571528
0.0571521
0.0571515
0.057151
0.0571506
0.0571504
0.0571502
0.0571518
0.0571519
0.0571521
0.0571525
0.057153
0.0571536
0.0571544
0.0571552
0.0571562
0.0571573
0.0571584
0.0571597
0.057161
0.0571625
0.057164
0.0571656
0.0571672
0.0571689
0.0571707
0.0571725
0.0571743
0.0571761
0.0571779
0.0571797
0.0571816
0.0571863
0.0571881
0.0571898
0.0571915
0.0571931
0.0571947
0.0571962
0.0571976
0.057199
0.0572003
0.0572015
0.0572026
0.0572036
0.0572046
0.0572055
0.0572063
0.057207
0.0572077
0.0572083
0.0572087
0.0572091
0.0572095
0.0572097
0.0572099
0.0572099
0.0572099
0.0572099
0.0572097
0.0572095
0.0572091
0.0572087
0.0572083
0.0572077
0.0572071
0.0572063
0.0572055
0.0572046
0.0572037
0.0572026
0.0572015
0.0572003
0.057199
0.0571976
0.0571962
0.0571947
0.0571931
0.0571915
0.0571898
0.0571881
0.0571864
0.0571816
0.0571798
0.0571779
0.0571761
0.0571743
0.0571725
0.0571707
0.0571689
0.0571672
0.0571656
0.057164
0.0571625
0.0571611
0.0571597
0.0571584
0.0571573
0.0571562
0.0571552
0.0571544
0.0571536
0.057153
0.0571525
0.0571521
0.0571519
0.0571518
0.0571533
0.0571534
0.0571536
0.057154
0.0571545
0.0571552
0.0571559
0.0571568
0.0571577
0.0571588
0.05716
0.0571613
0.0571626
0.0571641
0.0571656
0.0571672
0.0571689
0.0571706
0.0571724
0.0571741
0.057176
0.0571778
0.0571796
0.0571814
0.0571862
0.057188
0.0571898
0.0571915
0.0571931
0.0571947
0.0571963
0.0571977
0.0571991
0.0572005
0.0572017
0.0572029
0.057204
0.057205
0.057206
0.0572069
0.0572076
0.0572083
0.057209
0.0572095
0.05721
0.0572104
0.0572107