/*--------------------------------*- C++ -*----------------------------------*\
| =========                 |                                                 |
| \\      /  F ield         | OpenFOAM: The Open Source CFD Toolbox           |
|  \\    /   O peration     | Version:  v1812                                 |
|   \\  /    A nd           | Web:      www.OpenFOAM.com                      |
|    \\/     M anipulation  |                                                 |
\*---------------------------------------------------------------------------*/
FoamFile
{
    version     2.0;
    format      ascii;
    class       volScalarField;
    location    "2";
    object      y;
}
// * * * * * * * * * * * * * * * * * * * * * * * * * * * * * * * * * * * * * //

dimensions      [0 0 0 0 0 0 0];


internalField   nonuniform List<scalar> 
64
(
1.01726
1.01739
1.01761
1.01782
1.01782
1.01761
1.01739
1.01726
1.01739
1.01758
1.0179
1.0183
1.0183
1.0179
1.01758
1.01739
1.01761
1.0179
1.01839
1.01858
1.01858
1.01839
1.0179
1.01761
1.01782
1.0183
1.01858
1.01843
1.01843
1.01858
1.0183
1.01782
1.01782
1.0183
1.01858
1.01843
1.01843
1.01858
1.0183
1.01782
1.01761
1.0179
1.01839
1.01858
1.01858
1.01839
1.0179
1.01761
1.01739
1.01758
1.0179
1.0183
1.0183
1.0179
1.01758
1.01739
1.01726
1.01739
1.01761
1.01782
1.01782
1.01761
1.01739
1.01726
)
;

boundaryField
{
    backAndFront
    {
        type            empty;
    }
    dirichletBoundary
    {
        type            zeroGradient;
    }
}


// ************************************************************************* //
