/*--------------------------------*- C++ -*----------------------------------*\
| =========                 |                                                 |
| \\      /  F ield         | OpenFOAM: The Open Source CFD Toolbox           |
|  \\    /   O peration     | Version:  v1812                                 |
|   \\  /    A nd           | Web:      www.OpenFOAM.com                      |
|    \\/     M anipulation  |                                                 |
\*---------------------------------------------------------------------------*/
FoamFile
{
    version     2.0;
    format      ascii;
    class       volScalarField;
    location    "2";
    object      yDiff;
}
// * * * * * * * * * * * * * * * * * * * * * * * * * * * * * * * * * * * * * //

dimensions      [0 0 0 0 0 0 0];


internalField   nonuniform List<scalar> 
10000
(
42.4671
42.5847
42.6999
42.8127
42.9231
43.0311
43.1367
43.24
43.3408
43.4392
43.5352
43.6288
43.72
43.8088
43.8952
43.9792
44.0608
44.14
44.2168
44.2913
44.3633
44.4329
44.5001
44.5649
44.6273
44.6873
44.7449
44.8002
44.853
44.9034
44.9514
44.997
45.0402
45.081
45.1194
45.1554
45.1891
45.2203
45.2491
45.2755
45.2995
45.3211
45.3403
45.3571
45.3715
45.3835
45.3931
45.4003
45.4051
45.4075
45.4075
45.4051
45.4003
45.3931
45.3835
45.3715
45.3571
45.3403
45.3211
45.2995
45.2755
45.2491
45.2203
45.1891
45.1554
45.1194
45.081
45.0402
44.997
44.9514
44.9034
44.853
44.8002
44.7449
44.6873
44.6273
44.5649
44.5001
44.4329
44.3633
44.2913
44.2168
44.14
44.0608
43.9792
43.8952
43.8088
43.72
43.6288
43.5352
43.4392
43.3408
43.24
43.1367
43.0311
42.9231
42.8127
42.6999
42.5847
42.4671
42.5847
42.7023
42.8175
42.9303
43.0407
43.1487
43.2543
43.3576
43.4584
43.5568
43.6528
43.7464
43.8376
43.9264
44.0128
44.0968
44.1784
44.2576
44.3344
44.4089
44.4809
44.5505
44.6177
44.6825
44.7449
44.8049
44.8625
44.9178
44.9706
45.021
45.069
45.1146
45.1578
45.1986
45.237
45.2731
45.3067
45.3379
45.3667
45.3931
45.4171
45.4387
45.4579
45.4747
45.4891
45.5011
45.5107
45.5179
45.5227
45.5251
45.5251
45.5227
45.5179
45.5107
45.5011
45.4891
45.4747
45.4579
45.4387
45.4171
45.3931
45.3667
45.3379
45.3067
45.2731
45.237
45.1986
45.1578
45.1146
45.069
45.021
44.9706
44.9178
44.8625
44.8049
44.7449
44.6825
44.6177
44.5505
44.4809
44.4089
44.3344
44.2576
44.1784
44.0968
44.0128
43.9264
43.8376
43.7464
43.6528
43.5568
43.4584
43.3576
43.2543
43.1487
43.0407
42.9303
42.8175
42.7023
42.5847
42.6999
42.8175
42.9327
43.0455
43.1559
43.2639
43.3696
43.4728
43.5736
43.672
43.768
43.8616
43.9528
44.0416
44.128
44.212
44.2936
44.3728
44.4496
44.5241
44.5961
44.6657
44.7329
44.7977
44.8601
44.9201
44.9777
45.033
45.0858
45.1362
45.1842
45.2298
45.273
45.3138
45.3522
45.3883
45.4219
45.4531
45.4819
45.5083
45.5323
45.5539
45.5731
45.5899
45.6043
45.6163
45.6259
45.6331
45.6379
45.6403
45.6403
45.6379
45.6331
45.6259
45.6163
45.6043
45.5899
45.5731
45.5539
45.5323
45.5083
45.4819
45.4531
45.4219
45.3883
45.3522
45.3138
45.273
45.2298
45.1842
45.1362
45.0858
45.033
44.9777
44.9201
44.8601
44.7977
44.7329
44.6657
44.5961
44.5241
44.4496
44.3728
44.2936
44.212
44.128
44.0416
43.9528
43.8616
43.768
43.672
43.5736
43.4728
43.3696
43.2639
43.1559
43.0455
42.9327
42.8175
42.6999
42.8127
42.9303
43.0455
43.1583
43.2687
43.3767
43.4824
43.5856
43.6864
43.7848
43.8808
43.9744
44.0656
44.1544
44.2408
44.3248
44.4064
44.4856
44.5625
44.6369
44.7089
44.7785
44.8457
44.9105
44.9729
45.0329
45.0906
45.1458
45.1986
45.249
45.297
45.3426
45.3858
45.4266
45.4651
45.5011
45.5347
45.5659
45.5947
45.6211
45.6451
45.6667
45.6859
45.7027
45.7171
45.7291
45.7387
45.7459
45.7507
45.7531
45.7531
45.7507
45.7459
45.7387
45.7291
45.7171
45.7027
45.6859
45.6667
45.6451
45.6211
45.5947
45.5659
45.5347
45.5011
45.4651
45.4266
45.3858
45.3426
45.297
45.249
45.1986
45.1458
45.0906
45.0329
44.9729
44.9105
44.8457
44.7785
44.7089
44.6369
44.5625
44.4856
44.4064
44.3248
44.2408
44.1544
44.0656
43.9744
43.8808
43.7848
43.6864
43.5856
43.4824
43.3767
43.2687
43.1583
43.0455
42.9303
42.8127
42.9231
43.0407
43.1559
43.2687
43.3791
43.4872
43.5928
43.696
43.7968
43.8952
43.9912
44.0848
44.176
44.2648
44.3512
44.4352
44.5168
44.596
44.6729
44.7473
44.8193
44.8889
44.9561
45.0209
45.0833
45.1433
45.201
45.2562
45.309
45.3594
45.4074
45.453
45.4962
45.537
45.5755
45.6115
45.6451
45.6763
45.7051
45.7315
45.7555
45.7771
45.7963
45.8131
45.8275
45.8395
45.8492
45.8564
45.8612
45.8636
45.8636
45.8612
45.8564
45.8492
45.8395
45.8275
45.8131
45.7963
45.7771
45.7555
45.7315
45.7051
45.6763
45.6451
45.6115
45.5755
45.537
45.4962
45.453
45.4074
45.3594
45.309
45.2562
45.201
45.1433
45.0833
45.0209
44.9561
44.8889
44.8193
44.7473
44.6729
44.596
44.5168
44.4352
44.3512
44.2648
44.176
44.0848
43.9912
43.8952
43.7968
43.696
43.5928
43.4872
43.3791
43.2687
43.1559
43.0407
42.9231
43.0311
43.1487
43.2639
43.3767
43.4872
43.5952
43.7008
43.804
43.9048
44.0032
44.0992
44.1928
44.284
44.3728
44.4592
44.5432
44.6248
44.7041
44.7809
44.8553
44.9273
44.9969
45.0641
45.1289
45.1913
45.2514
45.309
45.3642
45.417
45.4674
45.5154
45.561
45.6042
45.6451
45.6835
45.7195
45.7531
45.7843
45.8131
45.8395
45.8635
45.8851
45.9043
45.9211
45.9356
45.9476
45.9572
45.9644
45.9692
45.9716
45.9716
45.9692
45.9644
45.9572
45.9476
45.9356
45.9211
45.9043
45.8851
45.8635
45.8395
45.8131
45.7843
45.7531
45.7195
45.6835
45.6451
45.6042
45.561
45.5154
45.4674
45.417
45.3642
45.309
45.2514
45.1913
45.1289
45.0641
44.9969
44.9273
44.8553
44.7809
44.7041
44.6248
44.5432
44.4592
44.3728
44.284
44.1928
44.0992
44.0032
43.9048
43.804
43.7008
43.5952
43.4872
43.3767
43.2639
43.1487
43.0311
43.1367
43.2543
43.3696
43.4824
43.5928
43.7008
43.8064
43.9096
44.0104
44.1088
44.2048
44.2984
44.3896
44.4784
44.5648
44.6488
44.7304
44.8097
44.8865
44.9609
45.0329
45.1025
45.1697
45.2345
45.2969
45.357
45.4146
45.4698
45.5226
45.573
45.621
45.6666
45.7099
45.7507
45.7891
45.8251
45.8587
45.8899
45.9187
45.9451
45.9691
45.9907
46.01
46.0268
46.0412
46.0532
46.0628
46.07
46.0748
46.0772
46.0772
46.0748
46.07
46.0628
46.0532
46.0412
46.0268
46.01
45.9907
45.9691
45.9451
45.9187
45.8899
45.8587
45.8251
45.7891
45.7507
45.7099
45.6666
45.621
45.573
45.5226
45.4698
45.4146
45.357
45.2969
45.2345
45.1697
45.1025
45.0329
44.9609
44.8865
44.8097
44.7304
44.6488
44.5648
44.4784
44.3896
44.2984
44.2048
44.1088
44.0104
43.9096
43.8064
43.7008
43.5928
43.4824
43.3696
43.2543
43.1367
43.24
43.3576
43.4728
43.5856
43.696
43.804
43.9096
44.0128
44.1136
44.212
44.308
44.4016
44.4928
44.5816
44.668
44.752
44.8337
44.9129
44.9897
45.0641
45.1361
45.2057
45.2729
45.3377
45.4002
45.4602
45.5178
45.573
45.6258
45.6762
45.7242
45.7699
45.8131
45.8539
45.8923
45.9283
45.9619
45.9931
46.0219
46.0483
46.0724
46.094
46.1132
46.13
46.1444
46.1564
46.166
46.1732
46.178
46.1804
46.1804
46.178
46.1732
46.166
46.1564
46.1444
46.13
46.1132
46.094
46.0724
46.0483
46.0219
45.9931
45.9619
45.9283
45.8923
45.8539
45.8131
45.7699
45.7242
45.6762
45.6258
45.573
45.5178
45.4602
45.4002
45.3377
45.2729
45.2057
45.1361
45.0641
44.9897
44.9129
44.8337
44.752
44.668
44.5816
44.4928
44.4016
44.308
44.212
44.1136
44.0128
43.9096
43.804
43.696
43.5856
43.4728
43.3576
43.24
43.3408
43.4584
43.5736
43.6864
43.7968
43.9048
44.0104
44.1136
44.2144
44.3128
44.4088
44.5024
44.5936
44.6824
44.7688
44.8529
44.9345
45.0137
45.0905
45.1649
45.2369
45.3065
45.3737
45.4386
45.501
45.561
45.6186
45.6738
45.7266
45.777
45.8251
45.8707
45.9139
45.9547
45.9931
46.0291
46.0627
46.0939
46.1228
46.1492
46.1732
46.1948
46.214
46.2308
46.2452
46.2572
46.2668
46.274
46.2788
46.2812
46.2812
46.2788
46.274
46.2668
46.2572
46.2452
46.2308
46.214
46.1948
46.1732
46.1492
46.1228
46.0939
46.0627
46.0291
45.9931
45.9547
45.9139
45.8707
45.8251
45.777
45.7266
45.6738
45.6186
45.561
45.501
45.4386
45.3737
45.3065
45.2369
45.1649
45.0905
45.0137
44.9345
44.8529
44.7688
44.6824
44.5936
44.5024
44.4088
44.3128
44.2144
44.1136
44.0104
43.9048
43.7968
43.6864
43.5736
43.4584
43.3408
43.4392
43.5568
43.672
43.7848
43.8952
44.0032
44.1088
44.212
44.3128
44.4112
44.5072
44.6008
44.692
44.7808
44.8672
44.9513
45.0329
45.1121
45.1889
45.2633
45.3353
45.4049
45.4722
45.537
45.5994
45.6594
45.717
45.7722
45.825
45.8755
45.9235
45.9691
46.0123
46.0531
46.0915
46.1275
46.1612
46.1924
46.2212
46.2476
46.2716
46.2932
46.3124
46.3292
46.3436
46.3556
46.3652
46.3724
46.3772
46.3796
46.3796
46.3772
46.3724
46.3652
46.3556
46.3436
46.3292
46.3124
46.2932
46.2716
46.2476
46.2212
46.1924
46.1612
46.1275
46.0915
46.0531
46.0123
45.9691
45.9235
45.8755
45.825
45.7722
45.717
45.6594
45.5994
45.537
45.4722
45.4049
45.3353
45.2633
45.1889
45.1121
45.0329
44.9513
44.8672
44.7808
44.692
44.6008
44.5072
44.4112
44.3128
44.212
44.1088
44.0032
43.8952
43.7848
43.672
43.5568
43.4392
43.5352
43.6528
43.768
43.8808
43.9912
44.0992
44.2048
44.308
44.4088
44.5072
44.6032
44.6968
44.788
44.8768
44.9633
45.0473
45.1289
45.2081
45.2849
45.3593
45.4313
45.5009
45.5682
45.633
45.6954
45.7554
45.813
45.8682
45.9211
45.9715
46.0195
46.0651
46.1083
46.1491
46.1875
46.2236
46.2572
46.2884
46.3172
46.3436
46.3676
46.3892
46.4084
46.4252
46.4396
46.4517
46.4613
46.4685
46.4733
46.4757
46.4757
46.4733
46.4685
46.4613
46.4517
46.4396
46.4252
46.4084
46.3892
46.3676
46.3436
46.3172
46.2884
46.2572
46.2236
46.1875
46.1491
46.1083
46.0651
46.0195
45.9715
45.9211
45.8682
45.813
45.7554
45.6954
45.633
45.5682
45.5009
45.4313
45.3593
45.2849
45.2081
45.1289
45.0473
44.9633
44.8768
44.788
44.6968
44.6032
44.5072
44.4088
44.308
44.2048
44.0992
43.9912
43.8808
43.768
43.6528
43.5352
43.6288
43.7464
43.8616
43.9744
44.0848
44.1928
44.2984
44.4016
44.5024
44.6008
44.6968
44.7904
44.8816
44.9705
45.0569
45.1409
45.2225
45.3017
45.3785
45.4529
45.5249
45.5946
45.6618
45.7266
45.789
45.849
45.9066
45.9619
46.0147
46.0651
46.1131
46.1587
46.2019
46.2427
46.2812
46.3172
46.3508
46.382
46.4108
46.4372
46.4612
46.4829
46.5021
46.5189
46.5333
46.5453
46.5549
46.5621
46.5669
46.5693
46.5693
46.5669
46.5621
46.5549
46.5453
46.5333
46.5189
46.5021
46.4829
46.4612
46.4372
46.4108
46.382
46.3508
46.3172
46.2812
46.2427
46.2019
46.1587
46.1131
46.0651
46.0147
45.9619
45.9066
45.849
45.789
45.7266
45.6618
45.5946
45.5249
45.4529
45.3785
45.3017
45.2225
45.1409
45.0569
44.9705
44.8816
44.7904
44.6968
44.6008
44.5024
44.4016
44.2984
44.1928
44.0848
43.9744
43.8616
43.7464
43.6288
43.72
43.8376
43.9528
44.0656
44.176
44.284
44.3896
44.4928
44.5936
44.692
44.788
44.8816
44.9729
45.0617
45.1481
45.2321
45.3137
45.3929
45.4697
45.5441
45.6162
45.6858
45.753
45.8178
45.8802
45.9402
45.9979
46.0531
46.1059
46.1563
46.2043
46.2499
46.2932
46.334
46.3724
46.4084
46.442
46.4732
46.502
46.5285
46.5525
46.5741
46.5933
46.6101
46.6245
46.6365
46.6461
46.6533
46.6581
46.6605
46.6605
46.6581
46.6533
46.6461
46.6365
46.6245
46.6101
46.5933
46.5741
46.5525
46.5285
46.502
46.4732
46.442
46.4084
46.3724
46.334
46.2932
46.2499
46.2043
46.1563
46.1059
46.0531
45.9979
45.9402
45.8802
45.8178
45.753
45.6858
45.6162
45.5441
45.4697
45.3929
45.3137
45.2321
45.1481
45.0617
44.9729
44.8816
44.788
44.692
44.5936
44.4928
44.3896
44.284
44.176
44.0656
43.9528
43.8376
43.72
43.8088
43.9264
44.0416
44.1544
44.2648
44.3728
44.4784
44.5816
44.6824
44.7808
44.8768
44.9705
45.0617
45.1505
45.2369
45.3209
45.4025
45.4817
45.5585
45.633
45.705
45.7746
45.8418
45.9066
45.969
46.0291
46.0867
46.1419
46.1947
46.2451
46.2931
46.3388
46.382
46.4228
46.4612
46.4972
46.5308
46.5621
46.5909
46.6173
46.6413
46.6629
46.6821
46.6989
46.7133
46.7253
46.7349
46.7421
46.747
46.7494
46.7494
46.747
46.7421
46.7349
46.7253
46.7133
46.6989
46.6821
46.6629
46.6413
46.6173
46.5909
46.5621
46.5308
46.4972
46.4612
46.4228
46.382
46.3388
46.2931
46.2451
46.1947
46.1419
46.0867
46.0291
45.969
45.9066
45.8418
45.7746
45.705
45.633
45.5585
45.4817
45.4025
45.3209
45.2369
45.1505
45.0617
44.9705
44.8768
44.7808
44.6824
44.5816
44.4784
44.3728
44.2648
44.1544
44.0416
43.9264
43.8088
43.8952
44.0128
44.128
44.2408
44.3512
44.4592
44.5648
44.668
44.7688
44.8672
44.9633
45.0569
45.1481
45.2369
45.3233
45.4073
45.4889
45.5681
45.645
45.7194
45.7914
45.861
45.9282
45.993
46.0555
46.1155
46.1731
46.2283
46.2811
46.3316
46.3796
46.4252
46.4684
46.5092
46.5476
46.5837
46.6173
46.6485
46.6773
46.7037
46.7277
46.7493
46.7686
46.7854
46.7998
46.8118
46.8214
46.8286
46.8334
46.8358
46.8358
46.8334
46.8286
46.8214
46.8118
46.7998
46.7854
46.7686
46.7493
46.7277
46.7037
46.6773
46.6485
46.6173
46.5837
46.5476
46.5092
46.4684
46.4252
46.3796
46.3316
46.2811
46.2283
46.1731
46.1155
46.0555
45.993
45.9282
45.861
45.7914
45.7194
45.645
45.5681
45.4889
45.4073
45.3233
45.2369
45.1481
45.0569
44.9633
44.8672
44.7688
44.668
44.5648
44.4592
44.3512
44.2408
44.128
44.0128
43.8952
43.9792
44.0968
44.212
44.3248
44.4352
44.5432
44.6488
44.752
44.8529
44.9513
45.0473
45.1409
45.2321
45.3209
45.4073
45.4913
45.5729
45.6522
45.729
45.8034
45.8754
45.945
46.0122
46.0771
46.1395
46.1995
46.2571
46.3123
46.3652
46.4156
46.4636
46.5092
46.5524
46.5933
46.6317
46.6677
46.7013
46.7325
46.7613
46.7877
46.8118
46.8334
46.8526
46.8694
46.8838
46.8958
46.9054
46.9126
46.9174
46.9198
46.9198
46.9174
46.9126
46.9054
46.8958
46.8838
46.8694
46.8526
46.8334
46.8118
46.7877
46.7613
46.7325
46.7013
46.6677
46.6317
46.5933
46.5524
46.5092
46.4636
46.4156
46.3652
46.3123
46.2571
46.1995
46.1395
46.0771
46.0122
45.945
45.8754
45.8034
45.729
45.6522
45.5729
45.4913
45.4073
45.3209
45.2321
45.1409
45.0473
44.9513
44.8529
44.752
44.6488
44.5432
44.4352
44.3248
44.212
44.0968
43.9792
44.0608
44.1784
44.2936
44.4064
44.5168
44.6248
44.7304
44.8337
44.9345
45.0329
45.1289
45.2225
45.3137
45.4025
45.4889
45.5729
45.6546
45.7338
45.8106
45.885
45.957
46.0266
46.0939
46.1587
46.2211
46.2811
46.3387
46.394
46.4468
46.4972
46.5452
46.5908
46.6341
46.6749
46.7133
46.7493
46.7829
46.8142
46.843
46.8694
46.8934
46.915
46.9342
46.951
46.9654
46.9775
46.9871
46.9943
46.9991
47.0015
47.0015
46.9991
46.9943
46.9871
46.9775
46.9654
46.951
46.9342
46.915
46.8934
46.8694
46.843
46.8142
46.7829
46.7493
46.7133
46.6749
46.6341
46.5908
46.5452
46.4972
46.4468
46.394
46.3387
46.2811
46.2211
46.1587
46.0939
46.0266
45.957
45.885
45.8106
45.7338
45.6546
45.5729
45.4889
45.4025
45.3137
45.2225
45.1289
45.0329
44.9345
44.8337
44.7304
44.6248
44.5168
44.4064
44.2936
44.1784
44.0608
44.14
44.2576
44.3728
44.4856
44.596
44.7041
44.8097
44.9129
45.0137
45.1121
45.2081
45.3017
45.3929
45.4817
45.5681
45.6522
45.7338
45.813
45.8898
45.9642
46.0362
46.1059
46.1731
46.2379
46.3003
46.3603
46.418
46.4732
46.526
46.5764
46.6244
46.6701
46.7133
46.7541
46.7925
46.8286
46.8622
46.8934
46.9222
46.9486
46.9726
46.9943
47.0135
47.0303
47.0447
47.0567
47.0663
47.0735
47.0783
47.0807
47.0807
47.0783
47.0735
47.0663
47.0567
47.0447
47.0303
47.0135
46.9943
46.9726
46.9486
46.9222
46.8934
46.8622
46.8286
46.7925
46.7541
46.7133
46.6701
46.6244
46.5764
46.526
46.4732
46.418
46.3603
46.3003
46.2379
46.1731
46.1059
46.0362
45.9642
45.8898
45.813
45.7338
45.6522
45.5681
45.4817
45.3929
45.3017
45.2081
45.1121
45.0137
44.9129
44.8097
44.7041
44.596
44.4856
44.3728
44.2576
44.14
44.2168
44.3344
44.4496
44.5625
44.6729
44.7809
44.8865
44.9897
45.0905
45.1889
45.2849
45.3785
45.4697
45.5585
45.645
45.729
45.8106
45.8898
45.9666
46.041
46.1131
46.1827
46.2499
46.3147
46.3771
46.4372
46.4948
46.55
46.6028
46.6533
46.7013
46.7469
46.7901
46.8309
46.8694
46.9054
46.939
46.9702
46.999
47.0255
47.0495
47.0711
47.0903
47.1071
47.1215
47.1335
47.1431
47.1503
47.1552
47.1576
47.1576
47.1552
47.1503
47.1431
47.1335
47.1215
47.1071
47.0903
47.0711
47.0495
47.0255
46.999
46.9702
46.939
46.9054
46.8694
46.8309
46.7901
46.7469
46.7013
46.6533
46.6028
46.55
46.4948
46.4372
46.3771
46.3147
46.2499
46.1827
46.1131
46.041
45.9666
45.8898
45.8106
45.729
45.645
45.5585
45.4697
45.3785
45.2849
45.1889
45.0905
44.9897
44.8865
44.7809
44.6729
44.5625
44.4496
44.3344
44.2168
44.2913
44.4089
44.5241
44.6369
44.7473
44.8553
44.9609
45.0641
45.1649
45.2633
45.3593
45.4529
45.5441
45.633
45.7194
45.8034
45.885
45.9642
46.041
46.1155
46.1875
46.2571
46.3243
46.3891
46.4516
46.5116
46.5692
46.6244
46.6773
46.7277
46.7757
46.8213
46.8646
46.9054
46.9438
46.9798
47.0134
47.0447
47.0735
47.0999
47.1239
47.1455
47.1647
47.1816
47.196
47.208
47.2176
47.2248
47.2296
47.232
47.232
47.2296
47.2248
47.2176
47.208
47.196
47.1816
47.1647
47.1455
47.1239
47.0999
47.0735
47.0447
47.0134
46.9798
46.9438
46.9054
46.8646
46.8213
46.7757
46.7277
46.6773
46.6244
46.5692
46.5116
46.4516
46.3891
46.3243
46.2571
46.1875
46.1155
46.041
45.9642
45.885
45.8034
45.7194
45.633
45.5441
45.4529
45.3593
45.2633
45.1649
45.0641
44.9609
44.8553
44.7473
44.6369
44.5241
44.4089
44.2913
44.3633
44.4809
44.5961
44.7089
44.8193
44.9273
45.0329
45.1361
45.2369
45.3353
45.4313
45.5249
45.6162
45.705
45.7914
45.8754
45.957
46.0362
46.1131
46.1875
46.2595
46.3291
46.3963
46.4612
46.5236
46.5836
46.6412
46.6965
46.7493
46.7997
46.8477
46.8934
46.9366
46.9774
47.0158
47.0519
47.0855
47.1167
47.1455
47.1719
47.196
47.2176
47.2368
47.2536
47.268
47.28
47.2896
47.2968
47.3016
47.304
47.304
47.3016
47.2968
47.2896
47.28
47.268
47.2536
47.2368
47.2176
47.196
47.1719
47.1455
47.1167
47.0855
47.0519
47.0158
46.9774
46.9366
46.8934
46.8477
46.7997
46.7493
46.6965
46.6412
46.5836
46.5236
46.4612
46.3963
46.3291
46.2595
46.1875
46.1131
46.0362
45.957
45.8754
45.7914
45.705
45.6162
45.5249
45.4313
45.3353
45.2369
45.1361
45.0329
44.9273
44.8193
44.7089
44.5961
44.4809
44.3633
44.4329
44.5505
44.6657
44.7785
44.8889
44.9969
45.1025
45.2057
45.3065
45.4049
45.5009
45.5946
45.6858
45.7746
45.861
45.945
46.0266
46.1059
46.1827
46.2571
46.3291
46.3987
46.466
46.5308
46.5932
46.6532
46.7109
46.7661
46.8189
46.8694
46.9174
46.963
47.0062
47.0471
47.0855
47.1215
47.1551
47.1863
47.2152
47.2416
47.2656
47.2872
47.3064
47.3232
47.3376
47.3496
47.3593
47.3665
47.3713
47.3737
47.3737
47.3713
47.3665
47.3593
47.3496
47.3376
47.3232
47.3064
47.2872
47.2656
47.2416
47.2152
47.1863
47.1551
47.1215
47.0855
47.0471
47.0062
46.963
46.9174
46.8694
46.8189
46.7661
46.7109
46.6532
46.5932
46.5308
46.466
46.3987
46.3291
46.2571
46.1827
46.1059
46.0266
45.945
45.861
45.7746
45.6858
45.5946
45.5009
45.4049
45.3065
45.2057
45.1025
44.9969
44.8889
44.7785
44.6657
44.5505
44.4329
44.5001
44.6177
44.7329
44.8457
44.9561
45.0641
45.1697
45.2729
45.3737
45.4722
45.5682
45.6618
45.753
45.8418
45.9282
46.0122
46.0939
46.1731
46.2499
46.3243
46.3963
46.466
46.5332
46.598
46.6604
46.7205
46.7781
46.8333
46.8862
46.9366
46.9846
47.0302
47.0735
47.1143
47.1527
47.1887
47.2224
47.2536
47.2824
47.3088
47.3328
47.3544
47.3737
47.3905
47.4049
47.4169
47.4265
47.4337
47.4385
47.4409
47.4409
47.4385
47.4337
47.4265
47.4169
47.4049
47.3905
47.3737
47.3544
47.3328
47.3088
47.2824
47.2536
47.2224
47.1887
47.1527
47.1143
47.0735
47.0302
46.9846
46.9366
46.8862
46.8333
46.7781
46.7205
46.6604
46.598
46.5332
46.466
46.3963
46.3243
46.2499
46.1731
46.0939
46.0122
45.9282
45.8418
45.753
45.6618
45.5682
45.4722
45.3737
45.2729
45.1697
45.0641
44.9561
44.8457
44.7329
44.6177
44.5001
44.5649
44.6825
44.7977
44.9105
45.0209
45.1289
45.2345
45.3377
45.4386
45.537
45.633
45.7266
45.8178
45.9066
45.993
46.0771
46.1587
46.2379
46.3147
46.3891
46.4612
46.5308
46.598
46.6629
46.7253
46.7853
46.8429
46.8982
46.951
47.0014
47.0495
47.0951
47.1383
47.1791
47.2176
47.2536
47.2872
47.3184
47.3472
47.3737
47.3977
47.4193
47.4385
47.4553
47.4697
47.4817
47.4913
47.4985
47.5033
47.5057
47.5057
47.5033
47.4985
47.4913
47.4817
47.4697
47.4553
47.4385
47.4193
47.3977
47.3737
47.3472
47.3184
47.2872
47.2536
47.2176
47.1791
47.1383
47.0951
47.0495
47.0014
46.951
46.8982
46.8429
46.7853
46.7253
46.6629
46.598
46.5308
46.4612
46.3891
46.3147
46.2379
46.1587
46.0771
45.993
45.9066
45.8178
45.7266
45.633
45.537
45.4386
45.3377
45.2345
45.1289
45.0209
44.9105
44.7977
44.6825
44.5649
44.6273
44.7449
44.8601
44.9729
45.0833
45.1913
45.2969
45.4002
45.501
45.5994
45.6954
45.789
45.8802
45.969
46.0555
46.1395
46.2211
46.3003
46.3771
46.4516
46.5236
46.5932
46.6604
46.7253
46.7877
46.8477
46.9054
46.9606
47.0134
47.0639
47.1119
47.1575
47.2007
47.2416
47.28
47.316
47.3496
47.3809
47.4097
47.4361
47.4601
47.4817
47.5009
47.5177
47.5321
47.5441
47.5537
47.5609
47.5657
47.5681
47.5681
47.5657
47.5609
47.5537
47.5441
47.5321
47.5177
47.5009
47.4817
47.4601
47.4361
47.4097
47.3809
47.3496
47.316
47.28
47.2416
47.2007
47.1575
47.1119
47.0639
47.0134
46.9606
46.9054
46.8477
46.7877
46.7253
46.6604
46.5932
46.5236
46.4516
46.3771
46.3003
46.2211
46.1395
46.0555
45.969
45.8802
45.789
45.6954
45.5994
45.501
45.4002
45.2969
45.1913
45.0833
44.9729
44.8601
44.7449
44.6273
44.6873
44.8049
44.9201
45.0329
45.1433
45.2514
45.357
45.4602
45.561
45.6594
45.7554
45.849
45.9402
46.0291
46.1155
46.1995
46.2811
46.3603
46.4372
46.5116
46.5836
46.6532
46.7205
46.7853
46.8477
46.9078
46.9654
47.0206
47.0735
47.1239
47.1719
47.2176
47.2608
47.3016
47.34
47.376
47.4097
47.4409
47.4697
47.4961
47.5201
47.5417
47.5609
47.5777
47.5922
47.6042
47.6138
47.621
47.6258
47.6282
47.6282
47.6258
47.621
47.6138
47.6042
47.5922
47.5777
47.5609
47.5417
47.5201
47.4961
47.4697
47.4409
47.4097
47.376
47.34
47.3016
47.2608
47.2176
47.1719
47.1239
47.0735
47.0206
46.9654
46.9078
46.8477
46.7853
46.7205
46.6532
46.5836
46.5116
46.4372
46.3603
46.2811
46.1995
46.1155
46.0291
45.9402
45.849
45.7554
45.6594
45.561
45.4602
45.357
45.2514
45.1433
45.0329
44.9201
44.8049
44.6873
44.7449
44.8625
44.9777
45.0906
45.201
45.309
45.4146
45.5178
45.6186
45.717
45.813
45.9066
45.9979
46.0867
46.1731
46.2571
46.3387
46.418
46.4948
46.5692
46.6412
46.7109
46.7781
46.8429
46.9054
46.9654
47.023
47.0783
47.1311
47.1815
47.2296
47.2752
47.3184
47.3592
47.3977
47.4337
47.4673
47.4985
47.5273
47.5537
47.5777
47.5994
47.6186
47.6354
47.6498
47.6618
47.6714
47.6786
47.6834
47.6858
47.6858
47.6834
47.6786
47.6714
47.6618
47.6498
47.6354
47.6186
47.5994
47.5777
47.5537
47.5273
47.4985
47.4673
47.4337
47.3977
47.3592
47.3184
47.2752
47.2296
47.1815
47.1311
47.0783
47.023
46.9654
46.9054
46.8429
46.7781
46.7109
46.6412
46.5692
46.4948
46.418
46.3387
46.2571
46.1731
46.0867
45.9979
45.9066
45.813
45.717
45.6186
45.5178
45.4146
45.309
45.201
45.0906
44.9777
44.8625
44.7449
44.8002
44.9178
45.033
45.1458
45.2562
45.3642
45.4698
45.573
45.6738
45.7722
45.8682
45.9619
46.0531
46.1419
46.2283
46.3123
46.394
46.4732
46.55
46.6244
46.6965
46.7661
46.8333
46.8982
46.9606
47.0206
47.0783
47.1335
47.1863
47.2368
47.2848
47.3304
47.3736
47.4145
47.4529
47.4889
47.5225
47.5537
47.5825
47.609
47.633
47.6546
47.6738
47.6906
47.705
47.717
47.7266
47.7338
47.7386
47.741
47.741
47.7386
47.7338
47.7266
47.717
47.705
47.6906
47.6738
47.6546
47.633
47.609
47.5825
47.5537
47.5225
47.4889
47.4529
47.4145
47.3736
47.3304
47.2848
47.2368
47.1863
47.1335
47.0783
47.0206
46.9606
46.8982
46.8333
46.7661
46.6965
46.6244
46.55
46.4732
46.394
46.3123
46.2283
46.1419
46.0531
45.9619
45.8682
45.7722
45.6738
45.573
45.4698
45.3642
45.2562
45.1458
45.033
44.9178
44.8002
44.853
44.9706
45.0858
45.1986
45.309
45.417
45.5226
45.6258
45.7266
45.825
45.9211
46.0147
46.1059
46.1947
46.2811
46.3652
46.4468
46.526
46.6028
46.6773
46.7493
46.8189
46.8862
46.951
47.0134
47.0735
47.1311
47.1863
47.2392
47.2896
47.3376
47.3832
47.4265
47.4673
47.5057
47.5417
47.5753
47.6066
47.6354
47.6618
47.6858
47.7074
47.7266
47.7434
47.7578
47.7698
47.7794
47.7866
47.7914
47.7938
47.7938
47.7914
47.7866
47.7794
47.7698
47.7578
47.7434
47.7266
47.7074
47.6858
47.6618
47.6354
47.6066
47.5753
47.5417
47.5057
47.4673
47.4265
47.3832
47.3376
47.2896
47.2392
47.1863
47.1311
47.0735
47.0134
46.951
46.8862
46.8189
46.7493
46.6773
46.6028
46.526
46.4468
46.3652
46.2811
46.1947
46.1059
46.0147
45.9211
45.825
45.7266
45.6258
45.5226
45.417
45.309
45.1986
45.0858
44.9706
44.853
44.9034
45.021
45.1362
45.249
45.3594
45.4674
45.573
45.6762
45.777
45.8755
45.9715
46.0651
46.1563
46.2451
46.3316
46.4156
46.4972
46.5764
46.6533
46.7277
46.7997
46.8694
46.9366
47.0014
47.0639
47.1239
47.1815
47.2368
47.2896
47.34
47.388
47.4337
47.4769
47.5177
47.5561
47.5921
47.6258
47.657
47.6858
47.7122
47.7362
47.7578
47.777
47.7938
47.8082
47.8202
47.8298
47.837
47.8418
47.8442
47.8442
47.8418
47.837
47.8298
47.8202
47.8082
47.7938
47.777
47.7578
47.7362
47.7122
47.6858
47.657
47.6258
47.5921
47.5561
47.5177
47.4769
47.4337
47.388
47.34
47.2896
47.2368
47.1815
47.1239
47.0639
47.0014
46.9366
46.8694
46.7997
46.7277
46.6533
46.5764
46.4972
46.4156
46.3316
46.2451
46.1563
46.0651
45.9715
45.8755
45.777
45.6762
45.573
45.4674
45.3594
45.249
45.1362
45.021
44.9034
44.9514
45.069
45.1842
45.297
45.4074
45.5154
45.621
45.7242
45.8251
45.9235
46.0195
46.1131
46.2043
46.2931
46.3796
46.4636
46.5452
46.6244
46.7013
46.7757
46.8477
46.9174
46.9846
47.0495
47.1119
47.1719
47.2296
47.2848
47.3376
47.388
47.4361
47.4817
47.5249
47.5657
47.6041
47.6402
47.6738
47.705
47.7338
47.7602
47.7842
47.8058
47.825
47.8418
47.8562
47.8682
47.8778
47.885
47.8898
47.8922
47.8922
47.8898
47.885
47.8778
47.8682
47.8562
47.8418
47.825
47.8058
47.7842
47.7602
47.7338
47.705
47.6738
47.6402
47.6041
47.5657
47.5249
47.4817
47.4361
47.388
47.3376
47.2848
47.2296
47.1719
47.1119
47.0495
46.9846
46.9174
46.8477
46.7757
46.7013
46.6244
46.5452
46.4636
46.3796
46.2931
46.2043
46.1131
46.0195
45.9235
45.8251
45.7242
45.621
45.5154
45.4074
45.297
45.1842
45.069
44.9514
44.997
45.1146
45.2298
45.3426
45.453
45.561
45.6666
45.7699
45.8707
45.9691
46.0651
46.1587
46.2499
46.3388
46.4252
46.5092
46.5908
46.6701
46.7469
46.8213
46.8934
46.963
47.0302
47.0951
47.1575
47.2176
47.2752
47.3304
47.3832
47.4337
47.4817
47.5273
47.5705
47.6113
47.6498
47.6858
47.7194
47.7506
47.7794
47.8058
47.8298
47.8514
47.8706
47.8874
47.9018
47.9138
47.9234
47.9306
47.9354
47.9378
47.9378
47.9354
47.9306
47.9234
47.9138
47.9018
47.8874
47.8706
47.8514
47.8298
47.8058
47.7794
47.7506
47.7194
47.6858
47.6498
47.6113
47.5705
47.5273
47.4817
47.4337
47.3832
47.3304
47.2752
47.2176
47.1575
47.0951
47.0302
46.963
46.8934
46.8213
46.7469
46.6701
46.5908
46.5092
46.4252
46.3388
46.2499
46.1587
46.0651
45.9691
45.8707
45.7699
45.6666
45.561
45.453
45.3426
45.2298
45.1146
44.997
45.0402
45.1578
45.273
45.3858
45.4962
45.6042
45.7099
45.8131
45.9139
46.0123
46.1083
46.2019
46.2932
46.382
46.4684
46.5524
46.6341
46.7133
46.7901
46.8646
46.9366
47.0062
47.0735
47.1383
47.2007
47.2608
47.3184
47.3736
47.4265
47.4769
47.5249
47.5705
47.6137
47.6546
47.693
47.729
47.7626
47.7938
47.8226
47.849
47.873
47.8946
47.9138
47.9306
47.945
47.957
47.9666
47.9738
47.9786
47.981
47.981
47.9786
47.9738
47.9666
47.957
47.945
47.9306
47.9138
47.8946
47.873
47.849
47.8226
47.7938
47.7626
47.729
47.693
47.6546
47.6137
47.5705
47.5249
47.4769
47.4265
47.3736
47.3184
47.2608
47.2007
47.1383
47.0735
47.0062
46.9366
46.8646
46.7901
46.7133
46.6341
46.5524
46.4684
46.382
46.2932
46.2019
46.1083
46.0123
45.9139
45.8131
45.7099
45.6042
45.4962
45.3858
45.273
45.1578
45.0402
45.081
45.1986
45.3138
45.4266
45.537
45.6451
45.7507
45.8539
45.9547
46.0531
46.1491
46.2427
46.334
46.4228
46.5092
46.5933
46.6749
46.7541
46.8309
46.9054
46.9774
47.0471
47.1143
47.1791
47.2416
47.3016
47.3592
47.4145
47.4673
47.5177
47.5657
47.6113
47.6546
47.6954
47.7338
47.7698
47.8034
47.8346
47.8634
47.8898
47.9138
47.9354
47.9546
47.9714
47.9858
47.9978
48.0074
48.0146
48.0194
48.0218
48.0218
48.0194
48.0146
48.0074
47.9978
47.9858
47.9714
47.9546
47.9354
47.9138
47.8898
47.8634
47.8346
47.8034
47.7698
47.7338
47.6954
47.6546
47.6113
47.5657
47.5177
47.4673
47.4145
47.3592
47.3016
47.2416
47.1791
47.1143
47.0471
46.9774
46.9054
46.8309
46.7541
46.6749
46.5933
46.5092
46.4228
46.334
46.2427
46.1491
46.0531
45.9547
45.8539
45.7507
45.6451
45.537
45.4266
45.3138
45.1986
45.081
45.1194
45.237
45.3522
45.4651
45.5755
45.6835
45.7891
45.8923
45.9931
46.0915
46.1875
46.2812
46.3724
46.4612
46.5476
46.6317
46.7133
46.7925
46.8694
46.9438
47.0158
47.0855
47.1527
47.2176
47.28
47.34
47.3977
47.4529
47.5057
47.5561
47.6041
47.6498
47.693
47.7338
47.7722
47.8082
47.8418
47.873
47.9018
47.9282
47.9522
47.9738
47.993
48.0098
48.0242
48.0362
48.0458
48.053
48.0578
48.0602
48.0602
48.0578
48.053
48.0458
48.0362
48.0242
48.0098
47.993
47.9738
47.9522
47.9282
47.9018
47.873
47.8418
47.8082
47.7722
47.7338
47.693
47.6498
47.6041
47.5561
47.5057
47.4529
47.3977
47.34
47.28
47.2176
47.1527
47.0855
47.0158
46.9438
46.8694
46.7925
46.7133
46.6317
46.5476
46.4612
46.3724
46.2812
46.1875
46.0915
45.9931
45.8923
45.7891
45.6835
45.5755
45.4651
45.3522
45.237
45.1194
45.1554
45.2731
45.3883
45.5011
45.6115
45.7195
45.8251
45.9283
46.0291
46.1275
46.2236
46.3172
46.4084
46.4972
46.5837
46.6677
46.7493
46.8286
46.9054
46.9798
47.0519
47.1215
47.1887
47.2536
47.316
47.376
47.4337
47.4889
47.5417
47.5921
47.6402
47.6858
47.729
47.7698
47.8082
47.8442
47.8778
47.909
47.9378
47.9642
47.9882
48.0098
48.029
48.0458
48.0602
48.0722
48.0818
48.089
48.0938
48.0962
48.0962
48.0938
48.089
48.0818
48.0722
48.0602
48.0458
48.029
48.0098
47.9882
47.9642
47.9378
47.909
47.8778
47.8442
47.8082
47.7698
47.729
47.6858
47.6402
47.5921
47.5417
47.4889
47.4337
47.376
47.316
47.2536
47.1887
47.1215
47.0519
46.9798
46.9054
46.8286
46.7493
46.6677
46.5837
46.4972
46.4084
46.3172
46.2236
46.1275
46.0291
45.9283
45.8251
45.7195
45.6115
45.5011
45.3883
45.2731
45.1554
45.1891
45.3067
45.4219
45.5347
45.6451
45.7531
45.8587
45.9619
46.0627
46.1612
46.2572
46.3508
46.442
46.5308
46.6173
46.7013
46.7829
46.8622
46.939
47.0134
47.0855
47.1551
47.2224
47.2872
47.3496
47.4097
47.4673
47.5225
47.5753
47.6258
47.6738
47.7194
47.7626
47.8034
47.8418
47.8778
47.9114
47.9426
47.9714
47.9978
48.0218
48.0434
48.0626
48.0794
48.0938
48.1058
48.1154
48.1226
48.1274
48.1298
48.1298
48.1274
48.1226
48.1154
48.1058
48.0938
48.0794
48.0626
48.0434
48.0218
47.9978
47.9714
47.9426
47.9114
47.8778
47.8418
47.8034
47.7626
47.7194
47.6738
47.6258
47.5753
47.5225
47.4673
47.4097
47.3496
47.2872
47.2224
47.1551
47.0855
47.0134
46.939
46.8622
46.7829
46.7013
46.6173
46.5308
46.442
46.3508
46.2572
46.1612
46.0627
45.9619
45.8587
45.7531
45.6451
45.5347
45.4219
45.3067