/*--------------------------------*- C++ -*----------------------------------*\
| =========                 |                                                 |
| \\      /  F ield         | OpenFOAM: The Open Source CFD Toolbox           |
|  \\    /   O peration     | Version:  v1812                                 |
|   \\  /    A nd           | Web:      www.OpenFOAM.com                      |
|    \\/     M anipulation  |                                                 |
\*---------------------------------------------------------------------------*/
FoamFile
{
    version     2.0;
    format      ascii;
    class       volScalarField;
    location    "4";
    object      p;
}
// * * * * * * * * * * * * * * * * * * * * * * * * * * * * * * * * * * * * * //

dimensions      [0 0 0 0 0 0 0];


internalField   nonuniform List<scalar> 
64
(
-4.26601
-3.14101
-2.39101
-2.01601
-2.01601
-2.39101
-3.14101
-4.266
-3.14101
-2.01601
-1.26601
-0.891013
-0.891013
-1.26601
-2.01601
-3.14101
-2.39101
-1.26601
-0.516014
-0.141016
-0.141016
-0.516014
-1.26601
-2.39101
-2.01601
-0.891013
-0.141016
0.233983
0.233983
-0.141016
-0.891013
-2.01601
-2.01601
-0.891013
-0.141016
0.233983
0.233983
-0.141016
-0.891013
-2.01601
-2.39101
-1.26601
-0.516014
-0.141016
-0.141016
-0.516014
-1.26601
-2.39101
-3.14101
-2.01601
-1.26601
-0.891013
-0.891013
-1.26601
-2.01601
-3.14101
-4.266
-3.14101
-2.39101
-2.01601
-2.01601
-2.39101
-3.14101
-4.266
)
;

boundaryField
{
    backAndFront
    {
        type            empty;
    }
    dirichletBoundary
    {
        type            fixedGradient;
        gradient        uniform -12;
    }
}


// ************************************************************************* //
