/*--------------------------------*- C++ -*----------------------------------*\
| =========                 |                                                 |
| \\      /  F ield         | OpenFOAM: The Open Source CFD Toolbox           |
|  \\    /   O peration     | Version:  v1812                                 |
|   \\  /    A nd           | Web:      www.OpenFOAM.com                      |
|    \\/     M anipulation  |                                                 |
\*---------------------------------------------------------------------------*/
FoamFile
{
    version     2.0;
    format      ascii;
    class       volScalarField;
    location    "4";
    object      uDiff;
}
// * * * * * * * * * * * * * * * * * * * * * * * * * * * * * * * * * * * * * //

dimensions      [0 0 0 0 0 0 0];


internalField   nonuniform List<scalar> 
64
(
0
0
0
0
0
0
0
0
0
0
0
0.0171229
0.0171229
0
0
0
0
0
0.0171254
0.0171307
0.0171307
0.0171254
0
0
0
0.0171229
0.0171307
0
0
0.0171307
0.0171229
0
0
0.0171229
0.0171307
0
0
0.0171307
0.0171229
0
0
0
0.0171254
0.0171307
0.0171307
0.0171254
0
0
0
0
0
0.0171229
0.0171229
0
0
0
0
0
0
0
0
0
0
0
)
;

boundaryField
{
    backAndFront
    {
        type            empty;
    }
    dirichletBoundary
    {
        type            calculated;
        value           uniform 0;
    }
}


// ************************************************************************* //
