/*--------------------------------*- C++ -*----------------------------------*\
| =========                 |                                                 |
| \\      /  F ield         | OpenFOAM: The Open Source CFD Toolbox           |
|  \\    /   O peration     | Version:  v1812                                 |
|   \\  /    A nd           | Web:      www.OpenFOAM.com                      |
|    \\/     M anipulation  |                                                 |
\*---------------------------------------------------------------------------*/
FoamFile
{
    version     2.0;
    format      ascii;
    class       volScalarField;
    location    "7";
    object      u;
}
// * * * * * * * * * * * * * * * * * * * * * * * * * * * * * * * * * * * * * //

dimensions      [0 0 0 0 0 0 0];


internalField   nonuniform List<scalar> 
64
(
1
1
1
1
1
1
1
1
1
1
1
0.868294
0.868294
1
1
1
1
1
0.493292
0.118286
0.118286
0.493292
1
1
1
0.868294
0.118286
0
0
0.118286
0.868294
1
1
0.868294
0.118286
0
0
0.118286
0.868294
1
1
1
0.493292
0.118286
0.118286
0.493292
1
1
1
1
1
0.868294
0.868294
1
1
1
1
1
1
1
1
1
1
1
)
;

boundaryField
{
    backAndFront
    {
        type            empty;
    }
    dirichletBoundary
    {
        type            fixedValue;
        value           uniform 0;
    }
}


// ************************************************************************* //
