/*--------------------------------*- C++ -*----------------------------------*\
| =========                 |                                                 |
| \\      /  F ield         | OpenFOAM: The Open Source CFD Toolbox           |
|  \\    /   O peration     | Version:  v1812                                 |
|   \\  /    A nd           | Web:      www.OpenFOAM.com                      |
|    \\/     M anipulation  |                                                 |
\*---------------------------------------------------------------------------*/
FoamFile
{
    version     2.0;
    format      ascii;
    class       volScalarField;
    location    "1";
    object      p;
}
// * * * * * * * * * * * * * * * * * * * * * * * * * * * * * * * * * * * * * //

dimensions      [0 0 0 0 0 0 0];


internalField   nonuniform List<scalar> 
64
(
-4.04521
-2.92014
-2.17003
-1.79495
-1.79495
-2.17003
-2.92014
-4.04521
-2.92014
-1.79505
-1.04492
-0.669825
-0.669825
-1.04492
-1.79505
-2.92014
-2.17003
-1.04492
-0.29475
0.0803728
0.0803728
-0.29475
-1.04492
-2.17003
-1.79495
-0.669825
0.0803728
0.45551
0.45551
0.0803728
-0.669825
-1.79495
-1.79495
-0.669825
0.0803728
0.45551
0.45551
0.0803728
-0.669825
-1.79495
-2.17003
-1.04492
-0.29475
0.0803728
0.0803728
-0.29475
-1.04492
-2.17003
-2.92014
-1.79505
-1.04492
-0.669825
-0.669825
-1.04492
-1.79505
-2.92014
-4.04521
-2.92014
-2.17003
-1.79495
-1.79495
-2.17003
-2.92014
-4.04521
)
;

boundaryField
{
    backAndFront
    {
        type            empty;
    }
    dirichletBoundary
    {
        type            fixedGradient;
        gradient        uniform -12;
    }
}


// ************************************************************************* //
