/*--------------------------------*- C++ -*----------------------------------*\
| =========                 |                                                 |
| \\      /  F ield         | OpenFOAM: The Open Source CFD Toolbox           |
|  \\    /   O peration     | Version:  v1812                                 |
|   \\  /    A nd           | Web:      www.OpenFOAM.com                      |
|    \\/     M anipulation  |                                                 |
\*---------------------------------------------------------------------------*/
FoamFile
{
    version     2.0;
    format      ascii;
    class       volScalarField;
    location    "1";
    object      y;
}
// * * * * * * * * * * * * * * * * * * * * * * * * * * * * * * * * * * * * * //

dimensions      [0 0 0 0 0 0 0];


internalField   nonuniform List<scalar> 
64
(
0.944728
0.944296
0.943586
0.942908
0.942908
0.943586
0.944296
0.944728
0.944296
0.943704
0.942673
0.941338
0.941338
0.942673
0.943704
0.944296
0.943586
0.942673
0.941166
0.940885
0.940885
0.941166
0.942673
0.943586
0.942908
0.941338
0.940885
0.941343
0.941343
0.940885
0.941338
0.942908
0.942908
0.941338
0.940885
0.941343
0.941343
0.940885
0.941338
0.942908
0.943586
0.942673
0.941166
0.940885
0.940885
0.941166
0.942673
0.943586
0.944296
0.943704
0.942673
0.941338
0.941338
0.942673
0.943704
0.944296
0.944728
0.944296
0.943586
0.942908
0.942908
0.943586
0.944296
0.944728
)
;

boundaryField
{
    backAndFront
    {
        type            empty;
    }
    dirichletBoundary
    {
        type            zeroGradient;
    }
}


// ************************************************************************* //
