/*--------------------------------*- C++ -*----------------------------------*\
| =========                 |                                                 |
| \\      /  F ield         | OpenFOAM: The Open Source CFD Toolbox           |
|  \\    /   O peration     | Version:  v1812                                 |
|   \\  /    A nd           | Web:      www.OpenFOAM.com                      |
|    \\/     M anipulation  |                                                 |
\*---------------------------------------------------------------------------*/
FoamFile
{
    version     2.0;
    format      ascii;
    class       volScalarField;
    location    "1";
    object      yDiff;
}
// * * * * * * * * * * * * * * * * * * * * * * * * * * * * * * * * * * * * * //

dimensions      [0 0 0 0 0 0 0];


internalField   nonuniform List<scalar> 
10000
(
42.3975
42.5151
42.6303
42.7431
42.8535
42.9615
43.0671
43.1703
43.271
43.3694
43.4654
43.559
43.6501
43.7389
43.8253
43.9092
43.9908
44.0699
44.1467
44.2211
44.293
44.3626
44.4297
44.4945
44.5568
44.6168
44.6743
44.7295
44.7822
44.8326
44.8805
44.9261
44.9693
45.01
45.0484
45.0843
45.1179
45.149
45.1778
45.2042
45.2281
45.2497
45.2689
45.2857
45.3001
45.312
45.3216
45.3288
45.3336
45.336
45.336
45.3336
45.3288
45.3216
45.312
45.3001
45.2857
45.2689
45.2497
45.2281
45.2042
45.1778
45.149
45.1179
45.0843
45.0484
45.01
44.9693
44.9261
44.8805
44.8326
44.7822
44.7295
44.6743
44.6168
44.5568
44.4945
44.4297
44.3626
44.293
44.2211
44.1467
44.0699
43.9908
43.9092
43.8253
43.7389
43.6501
43.559
43.4654
43.3694
43.271
43.1703
43.0671
42.9615
42.8535
42.7431
42.6303
42.5151
42.3975
42.5151
42.6327
42.7479
42.8607
42.9711
43.0791
43.1847
43.2879
43.3886
43.487
43.583
43.6766
43.7677
43.8565
43.9429
44.0268
44.1084
44.1875
44.2643
44.3387
44.4106
44.4802
44.5473
44.6121
44.6744
44.7344
44.7919
44.8471
44.8998
44.9502
44.9981
45.0437
45.0868
45.1276
45.166
45.2019
45.2355
45.2666
45.2954
45.3218
45.3457
45.3673
45.3865
45.4033
45.4176
45.4296
45.4392
45.4464
45.4512
45.4536
45.4536
45.4512
45.4464
45.4392
45.4296
45.4176
45.4033
45.3865
45.3673
45.3457
45.3218
45.2954
45.2666
45.2355
45.2019
45.166
45.1276
45.0868
45.0437
44.9981
44.9502
44.8998
44.8471
44.7919
44.7344
44.6744
44.6121
44.5473
44.4802
44.4106
44.3387
44.2643
44.1875
44.1084
44.0268
43.9429
43.8565
43.7677
43.6766
43.583
43.487
43.3886
43.2879
43.1847
43.0791
42.9711
42.8607
42.7479
42.6327
42.5151
42.6303
42.7479
42.8631
42.9759
43.0863
43.1943
43.2999
43.403
43.5038
43.6022
43.6982
43.7917
43.8829
43.9717
44.058
44.142
44.2236
44.3027
44.3795
44.4538
44.5258
44.5954
44.6625
44.7273
44.7896
44.8496
44.9071
44.9623
45.015
45.0654
45.1133
45.1589
45.202
45.2428
45.2811
45.3171
45.3507
45.3818
45.4106
45.437
45.4609
45.4825
45.5017
45.5184
45.5328
45.5448
45.5544
45.5616
45.5664
45.5688
45.5688
45.5664
45.5616
45.5544
45.5448
45.5328
45.5184
45.5017
45.4825
45.4609
45.437
45.4106
45.3818
45.3507
45.3171
45.2811
45.2428
45.202
45.1589
45.1133
45.0654
45.015
44.9623
44.9071
44.8496
44.7896
44.7273
44.6625
44.5954
44.5258
44.4538
44.3795
44.3027
44.2236
44.142
44.058
43.9717
43.8829
43.7917
43.6982
43.6022
43.5038
43.403
43.2999
43.1943
43.0863
42.9759
42.8631
42.7479
42.6303
42.7431
42.8607
42.9759
43.0887
43.1991
43.3071
43.4127
43.5158
43.6166
43.715
43.811
43.9045
43.9957
44.0845
44.1708
44.2548
44.3364
44.4155
44.4923
44.5666
44.6386
44.7081
44.7753
44.84
44.9024
44.9623
45.0199
45.075
45.1278
45.1782
45.2261
45.2717
45.3148
45.3556
45.3939
45.4299
45.4634
45.4946
45.5234
45.5497
45.5737
45.5953
45.6144
45.6312
45.6456
45.6576
45.6672
45.6744
45.6792
45.6816
45.6816
45.6792
45.6744
45.6672
45.6576
45.6456
45.6312
45.6144
45.5953
45.5737
45.5497
45.5234
45.4946
45.4634
45.4299
45.3939
45.3556
45.3148
45.2717
45.2261
45.1782
45.1278
45.075
45.0199
44.9623
44.9024
44.84
44.7753
44.7081
44.6386
44.5666
44.4923
44.4155
44.3364
44.2548
44.1708
44.0845
43.9957
43.9045
43.811
43.715
43.6166
43.5158
43.4127
43.3071
43.1991
43.0887
42.9759
42.8607
42.7431
42.8535
42.9711
43.0863
43.1991
43.3095
43.4175
43.523
43.6262
43.727
43.8254
43.9214
44.0149
44.1061
44.1949
44.2812
44.3652
44.4467
44.5259
44.6027
44.677
44.749
44.8185
44.8857
44.9504
45.0128
45.0727
45.1303
45.1854
45.2382
45.2885
45.3365
45.382
45.4252
45.4659
45.5043
45.5402
45.5738
45.605
45.6337
45.6601
45.6841
45.7056
45.7248
45.7416
45.756
45.768
45.7775
45.7847
45.7895
45.7919
45.7919
45.7895
45.7847
45.7775
45.768
45.756
45.7416
45.7248
45.7056
45.6841
45.6601
45.6337
45.605
45.5738
45.5402
45.5043
45.4659
45.4252
45.382
45.3365
45.2885
45.2382
45.1854
45.1303
45.0727
45.0128
44.9504
44.8857
44.8185
44.749
44.677
44.6027
44.5259
44.4467
44.3652
44.2812
44.1949
44.1061
44.0149
43.9214
43.8254
43.727
43.6262
43.523
43.4175
43.3095
43.1991
43.0863
42.9711
42.8535
42.9615
43.0791
43.1943
43.3071
43.4175
43.5254
43.631
43.7342
43.835
43.9334
44.0293
44.1229
44.2141
44.3028
44.3892
44.4732
44.5547
44.6339
44.7106
44.785
44.8569
44.9265
44.9936
45.0584
45.1207
45.1807
45.2382
45.2934
45.3461
45.3965
45.4444
45.49
45.5331
45.5739
45.6123
45.6482
45.6818
45.7129
45.7417
45.7681
45.792
45.8136
45.8328
45.8495
45.8639
45.8759
45.8855
45.8927
45.8975
45.8999
45.8999
45.8975
45.8927
45.8855
45.8759
45.8639
45.8495
45.8328
45.8136
45.792
45.7681
45.7417
45.7129
45.6818
45.6482
45.6123
45.5739
45.5331
45.49
45.4444
45.3965
45.3461
45.2934
45.2382
45.1807
45.1207
45.0584
44.9936
44.9265
44.8569
44.785
44.7106
44.6339
44.5547
44.4732
44.3892
44.3028
44.2141
44.1229
44.0293
43.9334
43.835
43.7342
43.631
43.5254
43.4175
43.3071
43.1943
43.0791
42.9615
43.0671
43.1847
43.2999
43.4127
43.523
43.631
43.7366
43.8398
43.9406
44.0389
44.1349
44.2285
44.3197
44.4084
44.4948
44.5787
44.6603
44.7395
44.8162
44.8906
44.9625
45.0321
45.0992
45.164
45.2263
45.2863
45.3438
45.399
45.4517
45.5021
45.55
45.5956
45.6387
45.6795
45.7178
45.7538
45.7873
45.8185
45.8472
45.8736
45.8976
45.9191
45.9383
45.9551
45.9695
45.9815
45.991
45.9982
46.003
46.0054
46.0054
46.003
45.9982
45.991
45.9815
45.9695
45.9551
45.9383
45.9191
45.8976
45.8736
45.8472
45.8185
45.7873
45.7538
45.7178
45.6795
45.6387
45.5956
45.55
45.5021
45.4517
45.399
45.3438
45.2863
45.2263
45.164
45.0992
45.0321
44.9625
44.8906
44.8162
44.7395
44.6603
44.5787
44.4948
44.4084
44.3197
44.2285
44.1349
44.0389
43.9406
43.8398
43.7366
43.631
43.523
43.4127
43.2999
43.1847
43.0671
43.1703
43.2879
43.403
43.5158
43.6262
43.7342
43.8398
43.943
44.0438
44.1421
44.2381
44.3317
44.4228
44.5116
44.598
44.6819
44.7635
44.8426
44.9194
44.9937
45.0657
45.1352
45.2024
45.2671
45.3295
45.3894
45.447
45.5021
45.5549
45.6052
45.6532
45.6987
45.7419
45.7826
45.821
45.8569
45.8905
45.9216
45.9504
45.9768
46.0007
46.0223
46.0415
46.0582
46.0726
46.0846
46.0942
46.1014
46.1062
46.1086
46.1086
46.1062
46.1014
46.0942
46.0846
46.0726
46.0582
46.0415
46.0223
46.0007
45.9768
45.9504
45.9216
45.8905
45.8569
45.821
45.7826
45.7419
45.6987
45.6532
45.6052
45.5549
45.5021
45.447
45.3894
45.3295
45.2671
45.2024
45.1352
45.0657
44.9937
44.9194
44.8426
44.7635
44.6819
44.598
44.5116
44.4228
44.3317
44.2381
44.1421
44.0438
43.943
43.8398
43.7342
43.6262
43.5158
43.403
43.2879
43.1703
43.271
43.3886
43.5038
43.6166
43.727
43.835
43.9406
44.0438
44.1445
44.2429
44.3389
44.4324
44.5236
44.6124
44.6987
44.7827
44.8642
44.9434
45.0202
45.0945
45.1665
45.236
45.3031
45.3679
45.4302
45.4902
45.5477
45.6029
45.6556
45.706
45.7539
45.7995
45.8426
45.8834
45.9217
45.9577
45.9912
46.0224
46.0511
46.0775
46.1015
46.123
46.1422
46.159
46.1733
46.1853
46.1949
46.2021
46.2069
46.2093
46.2093
46.2069
46.2021
46.1949
46.1853
46.1733
46.159
46.1422
46.123
46.1015
46.0775
46.0511
46.0224
45.9912
45.9577
45.9217
45.8834
45.8426
45.7995
45.7539
45.706
45.6556
45.6029
45.5477
45.4902
45.4302
45.3679
45.3031
45.236
45.1665
45.0945
45.0202
44.9434
44.8642
44.7827
44.6987
44.6124
44.5236
44.4324
44.3389
44.2429
44.1445
44.0438
43.9406
43.835
43.727
43.6166
43.5038
43.3886
43.271
43.3694
43.487
43.6022
43.715
43.8254
43.9334
44.0389
44.1421
44.2429
44.3413
44.4372
44.5308
44.622
44.7107
44.7971
44.8811
44.9626
45.0418
45.1185
45.1929
45.2648
45.3344
45.4015
45.4662
45.5286
45.5885
45.6461
45.7012
45.754
45.8043
45.8523
45.8978
45.9409
45.9817
46.02
46.056
46.0895
46.1207
46.1495
46.1758
46.1998
46.2213
46.2405
46.2573
46.2717
46.2836
46.2932
46.3004
46.3052
46.3076
46.3076
46.3052
46.3004
46.2932
46.2836
46.2717
46.2573
46.2405
46.2213
46.1998
46.1758
46.1495
46.1207
46.0895
46.056
46.02
45.9817
45.9409
45.8978
45.8523
45.8043
45.754
45.7012
45.6461
45.5885
45.5286
45.4662
45.4015
45.3344
45.2648
45.1929
45.1185
45.0418
44.9626
44.8811
44.7971
44.7107
44.622
44.5308
44.4372
44.3413
44.2429
44.1421
44.0389
43.9334
43.8254
43.715
43.6022
43.487
43.3694
43.4654
43.583
43.6982
43.811
43.9214
44.0293
44.1349
44.2381
44.3389
44.4372
44.5332
44.6268
44.7179
44.8067
44.8931
44.977
45.0586
45.1377
45.2145
45.2888
45.3608
45.4303
45.4975
45.5622
45.6245
45.6845
45.742
45.7972
45.8499
45.9002
45.9482
45.9937
46.0369
46.0776
46.116
46.1519
46.1855
46.2166
46.2454
46.2717
46.2957
46.3173
46.3364
46.3532
46.3676
46.3795
46.3891
46.3963
46.4011
46.4035
46.4035
46.4011
46.3963
46.3891
46.3795
46.3676
46.3532
46.3364
46.3173
46.2957
46.2717
46.2454
46.2166
46.1855
46.1519
46.116
46.0776
46.0369
45.9937
45.9482
45.9002
45.8499
45.7972
45.742
45.6845
45.6245
45.5622
45.4975
45.4303
45.3608
45.2888
45.2145
45.1377
45.0586
44.977
44.8931
44.8067
44.7179
44.6268
44.5332
44.4372
44.3389
44.2381
44.1349
44.0293
43.9214
43.811
43.6982
43.583
43.4654
43.559
43.6766
43.7917
43.9045
44.0149
44.1229
44.2285
44.3317
44.4324
44.5308
44.6268
44.7203
44.8115
44.9003
44.9866
45.0706
45.1521
45.2313
45.308
45.3824
45.4543
45.5239
45.591
45.6557
45.7181
45.778
45.8356
45.8907
45.9434
45.9938
46.0417
46.0873
46.1304
46.1711
46.2095
46.2454
46.279
46.3101
46.3389
46.3652
46.3892
46.4108
46.4299
46.4467
46.4611
46.473
46.4826
46.4898
46.4946
46.497
46.497
46.4946
46.4898
46.4826
46.473
46.4611
46.4467
46.4299
46.4108
46.3892
46.3652
46.3389
46.3101
46.279
46.2454
46.2095
46.1711
46.1304
46.0873
46.0417
45.9938
45.9434
45.8907
45.8356
45.778
45.7181
45.6557
45.591
45.5239
45.4543
45.3824
45.308
45.2313
45.1521
45.0706
44.9866
44.9003
44.8115
44.7203
44.6268
44.5308
44.4324
44.3317
44.2285
44.1229
44.0149
43.9045
43.7917
43.6766
43.559
43.6501
43.7677
43.8829
43.9957
44.1061
44.2141
44.3197
44.4228
44.5236
44.622
44.7179
44.8115
44.9027
44.9914
45.0778
45.1617
45.2433
45.3224
45.3992
45.4735
45.5455
45.615
45.6821
45.7469
45.8092
45.8692
45.9267
45.9818
46.0346
46.0849
46.1328
46.1784
46.2215
46.2623
46.3006
46.3365
46.3701
46.4012
46.43
46.4563
46.4803
46.5019
46.521
46.5378
46.5522
46.5641
46.5737
46.5809
46.5857
46.5881
46.5881
46.5857
46.5809
46.5737
46.5641
46.5522
46.5378
46.521
46.5019
46.4803
46.4563
46.43
46.4012
46.3701
46.3365
46.3006
46.2623
46.2215
46.1784
46.1328
46.0849
46.0346
45.9818
45.9267
45.8692
45.8092
45.7469
45.6821
45.615
45.5455
45.4735
45.3992
45.3224
45.2433
45.1617
45.0778
44.9914
44.9027
44.8115
44.7179
44.622
44.5236
44.4228
44.3197
44.2141
44.1061
43.9957
43.8829
43.7677
43.6501
43.7389
43.8565
43.9717
44.0845
44.1949
44.3028
44.4084
44.5116
44.6124
44.7107
44.8067
44.9003
44.9914
45.0802
45.1665
45.2505
45.332
45.4112
45.4879
45.5623
45.6342
45.7037
45.7709
45.8356
45.898
45.9579
46.0154
46.0706
46.1233
46.1736
46.2216
46.2671
46.3102
46.351
46.3893
46.4252
46.4588
46.4899
46.5187
46.545
46.569
46.5905
46.6097
46.6265
46.6408
46.6528
46.6624
46.6696
46.6744
46.6768
46.6768
46.6744
46.6696
46.6624
46.6528
46.6408
46.6265
46.6097
46.5905
46.569
46.545
46.5187
46.4899
46.4588
46.4252
46.3893
46.351
46.3102
46.2671
46.2216
46.1736
46.1233
46.0706
46.0154
45.9579
45.898
45.8356
45.7709
45.7037
45.6342
45.5623
45.4879
45.4112
45.332
45.2505
45.1665
45.0802
44.9914
44.9003
44.8067
44.7107
44.6124
44.5116
44.4084
44.3028
44.1949
44.0845
43.9717
43.8565
43.7389
43.8253
43.9429
44.058
44.1708
44.2812
44.3892
44.4948
44.598
44.6987
44.7971
44.8931
44.9866
45.0778
45.1665
45.2529
45.3368
45.4184
45.4975
45.5743
45.6486
45.7206
45.7901
45.8572
45.922
45.9843
46.0442
46.1017
46.1569
46.2096
46.2599
46.3079
46.3534
46.3965
46.4373
46.4756
46.5115
46.5451
46.5762
46.605
46.6313
46.6553
46.6768
46.696
46.7127
46.7271
46.7391
46.7487
46.7558
46.7606
46.763
46.763
46.7606
46.7558
46.7487
46.7391
46.7271
46.7127
46.696
46.6768
46.6553
46.6313
46.605
46.5762
46.5451
46.5115
46.4756
46.4373
46.3965
46.3534
46.3079
46.2599
46.2096
46.1569
46.1017
46.0442
45.9843
45.922
45.8572
45.7901
45.7206
45.6486
45.5743
45.4975
45.4184
45.3368
45.2529
45.1665
45.0778
44.9866
44.8931
44.7971
44.6987
44.598
44.4948
44.3892
44.2812
44.1708
44.058
43.9429
43.8253
43.9092
44.0268
44.142
44.2548
44.3652
44.4732
44.5787
44.6819
44.7827
44.8811
44.977
45.0706
45.1617
45.2505
45.3368
45.4208
45.5023
45.5815
45.6582
45.7326
45.8045
45.874
45.9412
46.0059
46.0682
46.1281
46.1857
46.2408
46.2935
46.3438
46.3918
46.4373
46.4804
46.5212
46.5595
46.5954
46.629
46.6601
46.6888
46.7152
46.7391
46.7607
46.7798
46.7966
46.811
46.8229
46.8325
46.8397
46.8445
46.8469
46.8469
46.8445
46.8397
46.8325
46.8229
46.811
46.7966
46.7798
46.7607
46.7391
46.7152
46.6888
46.6601
46.629
46.5954
46.5595
46.5212
46.4804
46.4373
46.3918
46.3438
46.2935
46.2408
46.1857
46.1281
46.0682
46.0059
45.9412
45.874
45.8045
45.7326
45.6582
45.5815
45.5023
45.4208
45.3368
45.2505
45.1617
45.0706
44.977
44.8811
44.7827
44.6819
44.5787
44.4732
44.3652
44.2548
44.142
44.0268
43.9092
43.9908
44.1084
44.2236
44.3364
44.4467
44.5547
44.6603
44.7635
44.8642
44.9626
45.0586
45.1521
45.2433
45.332
45.4184
45.5023
45.5839
45.663
45.7398
45.8141
45.886
45.9555
46.0227
46.0874
46.1497
46.2097
46.2672
46.3223
46.375
46.4253
46.4733
46.5188
46.5619
46.6026
46.641
46.6769
46.7104
46.7416
46.7703
46.7966
46.8206
46.8421
46.8613
46.8781
46.8924
46.9044
46.914
46.9212
46.926
46.9283
46.9283
46.926
46.9212
46.914
46.9044
46.8924
46.8781
46.8613
46.8421
46.8206
46.7966
46.7703
46.7416
46.7104
46.6769
46.641
46.6026
46.5619
46.5188
46.4733
46.4253
46.375
46.3223
46.2672
46.2097
46.1497
46.0874
46.0227
45.9555
45.886
45.8141
45.7398
45.663
45.5839
45.5023
45.4184
45.332
45.2433
45.1521
45.0586
44.9626
44.8642
44.7635
44.6603
44.5547
44.4467
44.3364
44.2236
44.1084
43.9908
44.0699
44.1875
44.3027
44.4155
44.5259
44.6339
44.7395
44.8426
44.9434
45.0418
45.1377
45.2313
45.3224
45.4112
45.4975
45.5815
45.663
45.7422
45.8189
45.8932
45.9651
46.0347
46.1018
46.1665
46.2288
46.2888
46.3463
46.4014
46.4541
46.5044
46.5524
46.5979
46.641
46.6817
46.72
46.756
46.7895
46.8206
46.8494
46.8757
46.8997
46.9212
46.9404
46.9571
46.9715
46.9835
46.993
47.0002
47.005
47.0074
47.0074
47.005
47.0002
46.993
46.9835
46.9715
46.9571
46.9404
46.9212
46.8997
46.8757
46.8494
46.8206
46.7895
46.756
46.72
46.6817
46.641
46.5979
46.5524
46.5044
46.4541
46.4014
46.3463
46.2888
46.2288
46.1665
46.1018
46.0347
45.9651
45.8932
45.8189
45.7422
45.663
45.5815
45.4975
45.4112
45.3224
45.2313
45.1377
45.0418
44.9434
44.8426
44.7395
44.6339
44.5259
44.4155
44.3027
44.1875
44.0699
44.1467
44.2643
44.3795
44.4923
44.6027
44.7106
44.8162
44.9194
45.0202
45.1185
45.2145
45.308
45.3992
45.4879
45.5743
45.6582
45.7398
45.8189
45.8956
45.9699
46.0419
46.1114
46.1785
46.2432
46.3056
46.3655
46.423
46.4781
46.5308
46.5811
46.629
46.6746
46.7177
46.7584
46.7967
46.8326
46.8662
46.8973
46.926
46.9524
46.9763
46.9979
47.017
47.0338
47.0482
47.0601
47.0697
47.0769
47.0817
47.0841
47.0841
47.0817
47.0769
47.0697
47.0601
47.0482
47.0338
47.017
46.9979
46.9763
46.9524
46.926
46.8973
46.8662
46.8326
46.7967
46.7584
46.7177
46.6746
46.629
46.5811
46.5308
46.4781
46.423
46.3655
46.3056
46.2432
46.1785
46.1114
46.0419
45.9699
45.8956
45.8189
45.7398
45.6582
45.5743
45.4879
45.3992
45.308
45.2145
45.1185
45.0202
44.9194
44.8162
44.7106
44.6027
44.4923
44.3795
44.2643
44.1467
44.2211
44.3387
44.4538
44.5666
44.677
44.785
44.8906
44.9937
45.0945
45.1929
45.2888
45.3824
45.4735
45.5623
45.6486
45.7326
45.8141
45.8932
45.9699
46.0443
46.1162
46.1857
46.2528
46.3175
46.3799
46.4398
46.4973
46.5524
46.6051
46.6554
46.7033
46.7488
46.7919
46.8327
46.871
46.9069
46.9404
46.9716
47.0003
47.0266
47.0506
47.0722
47.0913
47.1081
47.1225
47.1344
47.144
47.1512
47.156
47.1584
47.1584
47.156
47.1512
47.144
47.1344
47.1225
47.1081
47.0913
47.0722
47.0506
47.0266
47.0003
46.9716
46.9404
46.9069
46.871
46.8327
46.7919
46.7488
46.7033
46.6554
46.6051
46.5524
46.4973
46.4398
46.3799
46.3175
46.2528
46.1857
46.1162
46.0443
45.9699
45.8932
45.8141
45.7326
45.6486
45.5623
45.4735
45.3824
45.2888
45.1929
45.0945
44.9937
44.8906
44.785
44.677
44.5666
44.4538
44.3387
44.2211
44.293
44.4106
44.5258
44.6386
44.749
44.8569
44.9625
45.0657
45.1665
45.2648
45.3608
45.4543
45.5455
45.6342
45.7206
45.8045
45.886
45.9651
46.0419
46.1162
46.1881
46.2576
46.3247
46.3895
46.4518
46.5117
46.5692
46.6243
46.677
46.7273
46.7752
46.8207
46.8638
46.9045
46.9428
46.9788
47.0123
47.0434
47.0722
47.0985
47.1225
47.144
47.1632
47.18
47.1944
47.2063
47.2159
47.2231
47.2279
47.2303
47.2303
47.2279
47.2231
47.2159
47.2063
47.1944
47.18
47.1632
47.144
47.1225
47.0985
47.0722
47.0434
47.0123
46.9788
46.9428
46.9045
46.8638
46.8207
46.7752
46.7273
46.677
46.6243
46.5692
46.5117
46.4518
46.3895
46.3247
46.2576
46.1881
46.1162
46.0419
45.9651
45.886
45.8045
45.7206
45.6342
45.5455
45.4543
45.3608
45.2648
45.1665
45.0657
44.9625
44.8569
44.749
44.6386
44.5258
44.4106
44.293
44.3626
44.4802
44.5954
44.7081
44.8185
44.9265
45.0321
45.1352
45.236
45.3344
45.4303
45.5239
45.615
45.7037
45.7901
45.874
45.9555
46.0347
46.1114
46.1857
46.2576
46.3271
46.3943
46.459
46.5213
46.5812
46.6387
46.6938
46.7465
46.7968
46.8447
46.8902
46.9333
46.974
47.0123
47.0482
47.0818
47.1129
47.1417
47.168
47.192
47.2135
47.2327
47.2495
47.2639
47.2758
47.2854
47.2926
47.2974
47.2998
47.2998
47.2974
47.2926
47.2854
47.2758
47.2639
47.2495
47.2327
47.2135
47.192
47.168
47.1417
47.1129
47.0818
47.0482
47.0123
46.974
46.9333
46.8902
46.8447
46.7968
46.7465
46.6938
46.6387
46.5812
46.5213
46.459
46.3943
46.3271
46.2576
46.1857
46.1114
46.0347
45.9555
45.874
45.7901
45.7037
45.615
45.5239
45.4303
45.3344
45.236
45.1352
45.0321
44.9265
44.8185
44.7081
44.5954
44.4802
44.3626
44.4297
44.5473
44.6625
44.7753
44.8857
44.9936
45.0992
45.2024
45.3031
45.4015
45.4975
45.591
45.6821
45.7709
45.8572
45.9412
46.0227
46.1018
46.1785
46.2528
46.3247
46.3943
46.4614
46.5261
46.5884
46.6483
46.7058
46.7608
46.8135
46.8638
46.9117
46.9572
47.0004
47.0411
47.0794
47.1153
47.1489
47.18
47.2088
47.2351
47.2591
47.2807
47.2998
47.3166
47.331
47.343
47.3525
47.3597
47.3645
47.3669
47.3669
47.3645
47.3597
47.3525
47.343
47.331
47.3166
47.2998
47.2807
47.2591
47.2351
47.2088
47.18
47.1489
47.1153
47.0794
47.0411
47.0004
46.9572
46.9117
46.8638
46.8135
46.7608
46.7058
46.6483
46.5884
46.5261
46.4614
46.3943
46.3247
46.2528
46.1785
46.1018
46.0227
45.9412
45.8572
45.7709
45.6821
45.591
45.4975
45.4015
45.3031
45.2024
45.0992
44.9936
44.8857
44.7753
44.6625
44.5473
44.4297
44.4945
44.6121
44.7273
44.84
44.9504
45.0584
45.164
45.2671
45.3679
45.4662
45.5622
45.6557
45.7469
45.8356
45.922
46.0059
46.0874
46.1665
46.2432
46.3175
46.3895
46.459
46.5261
46.5908
46.6531
46.7129
46.7704
46.8255
46.8782
46.9285
46.9764
47.0219
47.065
47.1058
47.1441
47.18
47.2136
47.2447
47.2735
47.2998
47.3238
47.3454
47.3646
47.3813
47.3957
47.4077
47.4173
47.4245
47.4293
47.4317
47.4317
47.4293
47.4245
47.4173
47.4077
47.3957
47.3813
47.3646
47.3454
47.3238
47.2998
47.2735
47.2447
47.2136
47.18
47.1441
47.1058
47.065
47.0219
46.9764
46.9285
46.8782
46.8255
46.7704
46.7129
46.6531
46.5908
46.5261
46.459
46.3895
46.3175
46.2432
46.1665
46.0874
46.0059
45.922
45.8356
45.7469
45.6557
45.5622
45.4662
45.3679
45.2671
45.164
45.0584
44.9504
44.84
44.7273
44.6121
44.4945
44.5568
44.6744
44.7896
44.9024
45.0128
45.1207
45.2263
45.3295
45.4302
45.5286
45.6245
45.7181
45.8092
45.898
45.9843
46.0682
46.1497
46.2288
46.3056
46.3799
46.4518
46.5213
46.5884
46.6531
46.7153
46.7752
46.8327
46.8878
46.9405
46.9908
47.0387
47.0842
47.1273
47.1681
47.2064
47.2423
47.2759
47.307
47.3358
47.3622
47.3861
47.4077
47.4269
47.4437
47.4581
47.47
47.4796
47.4868
47.4916
47.494
47.494
47.4916
47.4868
47.4796
47.47
47.4581
47.4437
47.4269
47.4077
47.3861
47.3622
47.3358
47.307
47.2759
47.2423
47.2064
47.1681
47.1273
47.0842
47.0387
46.9908
46.9405
46.8878
46.8327
46.7752
46.7153
46.6531
46.5884
46.5213
46.4518
46.3799
46.3056
46.2288
46.1497
46.0682
45.9843
45.898
45.8092
45.7181
45.6245
45.5286
45.4302
45.3295
45.2263
45.1207
45.0128
44.9024
44.7896
44.6744
44.5568
44.6168
44.7344
44.8496
44.9623
45.0727
45.1807
45.2863
45.3894
45.4902
45.5885
45.6845
45.778
45.8692
45.9579
46.0442
46.1281
46.2097
46.2888
46.3655
46.4398
46.5117
46.5812
46.6483
46.7129
46.7752
46.8351
46.8926
46.9477
47.0004
47.0507
47.0986
47.1441
47.1872
47.228
47.2663
47.3023
47.3358
47.367
47.3957
47.4221
47.4461
47.4677
47.4868
47.5036
47.518
47.53
47.5396
47.5468
47.5516
47.554
47.554
47.5516
47.5468
47.5396
47.53
47.518
47.5036
47.4868
47.4677
47.4461
47.4221
47.3957
47.367
47.3358
47.3023
47.2663
47.228
47.1872
47.1441
47.0986
47.0507
47.0004
46.9477
46.8926
46.8351
46.7752
46.7129
46.6483
46.5812
46.5117
46.4398
46.3655
46.2888
46.2097
46.1281
46.0442
45.9579
45.8692
45.778
45.6845
45.5885
45.4902
45.3894
45.2863
45.1807
45.0727
44.9623
44.8496
44.7344
44.6168
44.6743
44.7919
44.9071
45.0199
45.1303
45.2382
45.3438
45.447
45.5477
45.6461
45.742
45.8356
45.9267
46.0154
46.1017
46.1857
46.2672
46.3463
46.423
46.4973
46.5692
46.6387
46.7058
46.7704
46.8327
46.8926
46.9501
47.0052
47.0579
47.1082
47.1561
47.2016
47.2448
47.2855
47.3238
47.3598
47.3934
47.4245
47.4533
47.4797
47.5036
47.5252
47.5444
47.5612
47.5756
47.5876
47.5972
47.6044
47.6092
47.6116
47.6116
47.6092
47.6044
47.5972
47.5876
47.5756
47.5612
47.5444
47.5252
47.5036
47.4797
47.4533
47.4245
47.3934
47.3598
47.3238
47.2855
47.2448
47.2016
47.1561
47.1082
47.0579
47.0052
46.9501
46.8926
46.8327
46.7704
46.7058
46.6387
46.5692
46.4973
46.423
46.3463
46.2672
46.1857
46.1017
46.0154
45.9267
45.8356
45.742
45.6461
45.5477
45.447
45.3438
45.2382
45.1303
45.0199
44.9071
44.7919
44.6743
44.7295
44.8471
44.9623
45.075
45.1854
45.2934
45.399
45.5021
45.6029
45.7012
45.7972
45.8907
45.9818
46.0706
46.1569
46.2408
46.3223
46.4014
46.4781
46.5524
46.6243
46.6938
46.7608
46.8255
46.8878
46.9477
47.0052
47.0603
47.113
47.1633
47.2112
47.2567
47.2999
47.3406
47.379
47.4149
47.4485
47.4797
47.5084
47.5348
47.5588
47.5804
47.5996
47.6164
47.6308
47.6428
47.6524
47.6596
47.6644
47.6668
47.6668
47.6644
47.6596
47.6524
47.6428
47.6308
47.6164
47.5996
47.5804
47.5588
47.5348
47.5084
47.4797
47.4485
47.4149
47.379
47.3406
47.2999
47.2567
47.2112
47.1633
47.113
47.0603
47.0052
46.9477
46.8878
46.8255
46.7608
46.6938
46.6243
46.5524
46.4781
46.4014
46.3223
46.2408
46.1569
46.0706
45.9818
45.8907
45.7972
45.7012
45.6029
45.5021
45.399
45.2934
45.1854
45.075
44.9623
44.8471
44.7295
44.7822
44.8998
45.015
45.1278
45.2382
45.3461
45.4517
45.5549
45.6556
45.754
45.8499
45.9434
46.0346
46.1233
46.2096
46.2935
46.375
46.4541
46.5308
46.6051
46.677
46.7465
46.8135
46.8782
46.9405
47.0004
47.0579
47.113
47.1657
47.216
47.2639
47.3095
47.3526
47.3934
47.4317
47.4677
47.5013
47.5324
47.5612
47.5876
47.6116
47.6332
47.6524
47.6692
47.6836
47.6956
47.7052
47.7124
47.7172
47.7196
47.7196
47.7172
47.7124
47.7052
47.6956
47.6836
47.6692
47.6524
47.6332
47.6116
47.5876
47.5612
47.5324
47.5013
47.4677
47.4317
47.3934
47.3526
47.3095
47.2639
47.216
47.1657
47.113
47.0579
47.0004
46.9405
46.8782
46.8135
46.7465
46.677
46.6051
46.5308
46.4541
46.375
46.2935
46.2096
46.1233
46.0346
45.9434
45.8499
45.754
45.6556
45.5549
45.4517
45.3461
45.2382
45.1278
45.015
44.8998
44.7822
44.8326
44.9502
45.0654
45.1782
45.2885
45.3965
45.5021
45.6052
45.706
45.8043
45.9002
45.9938
46.0849
46.1736
46.2599
46.3438
46.4253
46.5044
46.5811
46.6554
46.7273
46.7968
46.8638
46.9285
46.9908
47.0507
47.1082
47.1633
47.216
47.2663
47.3143
47.3598
47.403
47.4437
47.4821
47.5181
47.5516
47.5828
47.6116
47.638
47.662
47.6836
47.7028
47.7196
47.734
47.746
47.7556
47.7628
47.7676
47.77
47.77
47.7676
47.7628
47.7556
47.746
47.734
47.7196
47.7028
47.6836
47.662
47.638
47.6116
47.5828
47.5516
47.5181
47.4821
47.4437
47.403
47.3598
47.3143
47.2663
47.216
47.1633
47.1082
47.0507
46.9908
46.9285
46.8638
46.7968
46.7273
46.6554
46.5811
46.5044
46.4253
46.3438
46.2599
46.1736
46.0849
45.9938
45.9002
45.8043
45.706
45.6052
45.5021
45.3965
45.2885
45.1782
45.0654
44.9502
44.8326
44.8805
44.9981
45.1133
45.2261
45.3365
45.4444
45.55
45.6532
45.7539
45.8523
45.9482
46.0417
46.1328
46.2216
46.3079
46.3918
46.4733
46.5524
46.629
46.7033
46.7752
46.8447
46.9117
46.9764
47.0387
47.0986
47.1561
47.2112
47.2639
47.3143
47.3622
47.4078
47.4509
47.4917
47.53
47.566
47.5996
47.6308
47.6596
47.686
47.71
47.7316
47.7508
47.7676
47.782
47.794
47.8036
47.8108
47.8156
47.818
47.818
47.8156
47.8108
47.8036
47.794
47.782
47.7676
47.7508
47.7316
47.71
47.686
47.6596
47.6308
47.5996
47.566
47.53
47.4917
47.4509
47.4078
47.3622
47.3143
47.2639
47.2112
47.1561
47.0986
47.0387
46.9764
46.9117
46.8447
46.7752
46.7033
46.629
46.5524
46.4733
46.3918
46.3079
46.2216
46.1328
46.0417
45.9482
45.8523
45.7539
45.6532
45.55
45.4444
45.3365
45.2261
45.1133
44.9981
44.8805
44.9261
45.0437
45.1589
45.2717
45.382
45.49
45.5956
45.6987
45.7995
45.8978
45.9937
46.0873
46.1784
46.2671
46.3534
46.4373
46.5188
46.5979
46.6746
46.7488
46.8207
46.8902
46.9572
47.0219
47.0842
47.1441
47.2016
47.2567
47.3095
47.3598
47.4078
47.4533
47.4965
47.5372
47.5756
47.6116
47.6452
47.6764
47.7052
47.7316
47.7556
47.7772
47.7964
47.8132
47.8276
47.8397
47.8493
47.8565
47.8613
47.8637
47.8637
47.8613
47.8565
47.8493
47.8397
47.8276
47.8132
47.7964
47.7772
47.7556
47.7316
47.7052
47.6764
47.6452
47.6116
47.5756
47.5372
47.4965
47.4533
47.4078
47.3598
47.3095
47.2567
47.2016
47.1441
47.0842
47.0219
46.9572
46.8902
46.8207
46.7488
46.6746
46.5979
46.5188
46.4373
46.3534
46.2671
46.1784
46.0873
45.9937
45.8978
45.7995
45.6987
45.5956
45.49
45.382
45.2717
45.1589
45.0437
44.9261
44.9693
45.0868
45.202
45.3148
45.4252
45.5331
45.6387
45.7419
45.8426
45.9409
46.0369
46.1304
46.2215
46.3102
46.3965
46.4804
46.5619
46.641
46.7177
46.7919
46.8638
46.9333
47.0004
47.065
47.1273
47.1872
47.2448
47.2999
47.3526
47.403
47.4509
47.4965
47.5396
47.5804
47.6188
47.6548
47.6884
47.7196
47.7484
47.7748
47.7988
47.8204
47.8397
47.8565
47.8709
47.8829
47.8925
47.8997
47.9045
47.9069
47.9069
47.9045
47.8997
47.8925
47.8829
47.8709
47.8565
47.8397
47.8204
47.7988
47.7748
47.7484
47.7196
47.6884
47.6548
47.6188
47.5804
47.5396
47.4965
47.4509
47.403
47.3526
47.2999
47.2448
47.1872
47.1273
47.065
47.0004
46.9333
46.8638
46.7919
46.7177
46.641
46.5619
46.4804
46.3965
46.3102
46.2215
46.1304
46.0369
45.9409
45.8426
45.7419
45.6387
45.5331
45.4252
45.3148
45.202
45.0868
44.9693
45.01
45.1276
45.2428
45.3556
45.4659
45.5739
45.6795
45.7826
45.8834
45.9817
46.0776
46.1711
46.2623
46.351
46.4373
46.5212
46.6026
46.6817
46.7584
46.8327
46.9045
46.974
47.0411
47.1058
47.1681
47.228
47.2855
47.3406
47.3934
47.4437
47.4917
47.5372
47.5804
47.6212
47.6596
47.6956
47.7292
47.7604
47.7892
47.8156
47.8397
47.8613
47.8805
47.8973
47.9117
47.9238
47.9334
47.9406
47.9454
47.9478
47.9478
47.9454
47.9406
47.9334
47.9238
47.9117
47.8973
47.8805
47.8613
47.8397
47.8156
47.7892
47.7604
47.7292
47.6956
47.6596
47.6212
47.5804
47.5372
47.4917
47.4437
47.3934
47.3406
47.2855
47.228
47.1681
47.1058
47.0411
46.974
46.9045
46.8327
46.7584
46.6817
46.6026
46.5212
46.4373
46.351
46.2623
46.1711
46.0776
45.9817
45.8834
45.7826
45.6795
45.5739
45.4659
45.3556
45.2428
45.1276
45.01
45.0484
45.166
45.2811
45.3939
45.5043
45.6123
45.7178
45.821
45.9217
46.02
46.116
46.2095
46.3006
46.3893
46.4756
46.5595
46.641
46.72
46.7967
46.871
46.9428
47.0123
47.0794
47.1441
47.2064
47.2663
47.3238
47.379
47.4317
47.4821
47.53
47.5756
47.6188
47.6596
47.698
47.734
47.7676
47.7988
47.8277
47.8541
47.8781
47.8997
47.919
47.9358
47.9502
47.9622
47.9718
47.979
47.9838
47.9862
47.9862
47.9838
47.979
47.9718
47.9622
47.9502
47.9358
47.919
47.8997
47.8781
47.8541
47.8277
47.7988
47.7676
47.734
47.698
47.6596
47.6188
47.5756
47.53
47.4821
47.4317
47.379
47.3238
47.2663
47.2064
47.1441
47.0794
47.0123
46.9428
46.871
46.7967
46.72
46.641
46.5595
46.4756
46.3893
46.3006
46.2095
46.116
46.02
45.9217
45.821
45.7178
45.6123
45.5043
45.3939
45.2811
45.166
45.0484
45.0843
45.2019
45.3171
45.4299
45.5402
45.6482
45.7538
45.8569
45.9577
46.056
46.1519
46.2454
46.3365
46.4252
46.5115
46.5954
46.6769
46.756
46.8326
46.9069
46.9788
47.0482
47.1153
47.18
47.2423
47.3023
47.3598
47.4149
47.4677
47.5181
47.566
47.6116
47.6548
47.6956
47.734
47.77
47.8036
47.8349
47.8637
47.8901
47.9141
47.9358
47.955
47.9718
47.9862
47.9982
48.0079
48.0151
48.0199
48.0223
48.0223
48.0199
48.0151
48.0079
47.9982
47.9862
47.9718
47.955
47.9358
47.9141
47.8901
47.8637
47.8349
47.8036
47.77
47.734
47.6956
47.6548
47.6116
47.566
47.5181
47.4677
47.4149
47.3598
47.3023
47.2423
47.18
47.1153
47.0482
46.9788
46.9069
46.8326
46.756
46.6769
46.5954
46.5115
46.4252
46.3365
46.2454
46.1519
46.056
45.9577
45.8569
45.7538
45.6482
45.5402
45.4299
45.3171
45.2019
45.0843
45.1179
45.2355
45.3507
45.4634
45.5738
45.6818
45.7873
45.8905
45.9912
46.0895
46.1855
46.279
46.3701
46.4588
46.5451
46.629
46.7104
46.7895
46.8662
46.9404
47.0123
47.0818
47.1489
47.2136
47.2759
47.3358
47.3934
47.4485
47.5013
47.5516
47.5996
47.6452
47.6884
47.7292
47.7676
47.8036
47.8373
47.8685
47.8973
47.9238
47.9478
47.9694
47.9886
48.0055
48.0199
48.0319
48.0415
48.0487
48.0535
48.0559
48.0559
48.0535
48.0487
48.0415
48.0319
48.0199
48.0055
47.9886
47.9694
47.9478
47.9238
47.8973
47.8685
47.8373
47.8036
47.7676
47.7292
47.6884
47.6452
47.5996
47.5516
47.5013
47.4485
47.3934
47.3358
47.2759
47.2136
47.1489
47.0818
47.0123
46.9404
46.8662
46.7895
46.7104
46.629
46.5451
46.4588
46.3701
46.279
46.1855
46.0895
45.9912
45.8905
45.7873
45.6818
45.5738
45.4634
45.3507
45.2355
45.1179