/*--------------------------------*- C++ -*----------------------------------*\
| =========                 |                                                 |
| \\      /  F ield         | OpenFOAM: The Open Source CFD Toolbox           |
|  \\    /   O peration     | Version:  v1812                                 |
|   \\  /    A nd           | Web:      www.OpenFOAM.com                      |
|    \\/     M anipulation  |                                                 |
\*---------------------------------------------------------------------------*/
FoamFile
{
    version     2.0;
    format      ascii;
    class       volScalarField;
    location    "3";
    object      p;
}
// * * * * * * * * * * * * * * * * * * * * * * * * * * * * * * * * * * * * * //

dimensions      [0 0 0 0 0 0 0];


internalField   nonuniform List<scalar> 
64
(
-4.24249
-3.11749
-2.36748
-1.99247
-1.99247
-2.36748
-3.11749
-4.24249
-3.11749
-1.99248
-1.24247
-0.867466
-0.867466
-1.24247
-1.99248
-3.11749
-2.36748
-1.24247
-0.492463
-0.117457
-0.117457
-0.492463
-1.24247
-2.36748
-1.99247
-0.867466
-0.117457
0.257546
0.257546
-0.117457
-0.867466
-1.99247
-1.99247
-0.867466
-0.117457
0.257546
0.257546
-0.117457
-0.867466
-1.99247
-2.36748
-1.24247
-0.492463
-0.117457
-0.117457
-0.492463
-1.24247
-2.36748
-3.11749
-1.99248
-1.24247
-0.867466
-0.867466
-1.24247
-1.99248
-3.11749
-4.24249
-3.11749
-2.36748
-1.99247
-1.99247
-2.36748
-3.11749
-4.24249
)
;

boundaryField
{
    backAndFront
    {
        type            empty;
    }
    dirichletBoundary
    {
        type            fixedGradient;
        gradient        uniform -12;
    }
}


// ************************************************************************* //
