/*--------------------------------*- C++ -*----------------------------------*\
| =========                 |                                                 |
| \\      /  F ield         | OpenFOAM: The Open Source CFD Toolbox           |
|  \\    /   O peration     | Version:  v1812                                 |
|   \\  /    A nd           | Web:      www.OpenFOAM.com                      |
|    \\/     M anipulation  |                                                 |
\*---------------------------------------------------------------------------*/
FoamFile
{
    version     2.0;
    format      ascii;
    class       volScalarField;
    location    "3";
    object      pd;
}
// * * * * * * * * * * * * * * * * * * * * * * * * * * * * * * * * * * * * * //

dimensions      [0 0 0 0 0 0 0];


internalField   nonuniform List<scalar> 
10000
(
-5.54727
-5.42967
-5.31447
-5.20167
-5.09127
-4.98327
-4.87767
-4.77447
-4.67367
-4.57527
-4.47927
-4.38567
-4.29447
-4.20567
-4.11927
-4.03527
-3.95367
-3.87447
-3.79767
-3.72327
-3.65127
-3.58167
-3.51447
-3.44967
-3.38727
-3.32727
-3.26967
-3.21447
-3.16167
-3.11127
-3.06327
-3.01767
-2.97447
-2.93367
-2.89527
-2.85927
-2.82567
-2.79447
-2.76567
-2.73927
-2.71527
-2.69367
-2.67447
-2.65767
-2.64327
-2.63127
-2.62167
-2.61447
-2.60967
-2.60727
-2.60727
-2.60967
-2.61447
-2.62167
-2.63127
-2.64327
-2.65767
-2.67447
-2.69367
-2.71527
-2.73927
-2.76567
-2.79447
-2.82567
-2.85927
-2.89527
-2.93367
-2.97447
-3.01767
-3.06327
-3.11127
-3.16167
-3.21447
-3.26967
-3.32727
-3.38727
-3.44967
-3.51447
-3.58167
-3.65127
-3.72327
-3.79767
-3.87447
-3.95367
-4.03527
-4.11927
-4.20567
-4.29447
-4.38567
-4.47927
-4.57527
-4.67367
-4.77447
-4.87767
-4.98327
-5.09127
-5.20167
-5.31447
-5.42967
-5.54727
-5.42967
-5.31207
-5.19687
-5.08407
-4.97367
-4.86567
-4.76007
-4.65687
-4.55607
-4.45767
-4.36167
-4.26807
-4.17687
-4.08807
-4.00167
-3.91767
-3.83607
-3.75687
-3.68007
-3.60567
-3.53367
-3.46407
-3.39687
-3.33207
-3.26967
-3.20967
-3.15207
-3.09687
-3.04407
-2.99367
-2.94567
-2.90007
-2.85687
-2.81607
-2.77767
-2.74167
-2.70807
-2.67687
-2.64807
-2.62167
-2.59767
-2.57607
-2.55687
-2.54007
-2.52567
-2.51367
-2.50407
-2.49687
-2.49207
-2.48967
-2.48967
-2.49207
-2.49687
-2.50407
-2.51367
-2.52567
-2.54007
-2.55687
-2.57607
-2.59767
-2.62167
-2.64807
-2.67687
-2.70807
-2.74167
-2.77767
-2.81607
-2.85687
-2.90007
-2.94567
-2.99367
-3.04407
-3.09687
-3.15207
-3.20967
-3.26967
-3.33207
-3.39687
-3.46407
-3.53367
-3.60567
-3.68007
-3.75687
-3.83607
-3.91767
-4.00167
-4.08807
-4.17687
-4.26807
-4.36167
-4.45767
-4.55607
-4.65687
-4.76007
-4.86567
-4.97367
-5.08407
-5.19687
-5.31207
-5.42967
-5.31447
-5.19687
-5.08167
-4.96887
-4.85847
-4.75047
-4.64487
-4.54167
-4.44087
-4.34247
-4.24647
-4.15287
-4.06167
-3.97287
-3.88647
-3.80247
-3.72087
-3.64167
-3.56487
-3.49047
-3.41847
-3.34887
-3.28167
-3.21687
-3.15447
-3.09447
-3.03687
-2.98167
-2.92887
-2.87847
-2.83047
-2.78487
-2.74167
-2.70087
-2.66247
-2.62647
-2.59287
-2.56167
-2.53287
-2.50647
-2.48247
-2.46087
-2.44167
-2.42487
-2.41047
-2.39847
-2.38887
-2.38167
-2.37687
-2.37447
-2.37447
-2.37687
-2.38167
-2.38887
-2.39847
-2.41047
-2.42487
-2.44167
-2.46087
-2.48247
-2.50647
-2.53287
-2.56167
-2.59287
-2.62647
-2.66247
-2.70087
-2.74167
-2.78487
-2.83047
-2.87847
-2.92887
-2.98167
-3.03687
-3.09447
-3.15447
-3.21687
-3.28167
-3.34887
-3.41847
-3.49047
-3.56487
-3.64167
-3.72087
-3.80247
-3.88647
-3.97287
-4.06167
-4.15287
-4.24647
-4.34247
-4.44087
-4.54167
-4.64487
-4.75047
-4.85847
-4.96887
-5.08167
-5.19687
-5.31447
-5.20167
-5.08407
-4.96887
-4.85607
-4.74567
-4.63767
-4.53207
-4.42887
-4.32807
-4.22967
-4.13367
-4.04007
-3.94887
-3.86007
-3.77367
-3.68967
-3.60807
-3.52887
-3.45207
-3.37767
-3.30567
-3.23607
-3.16887
-3.10407
-3.04167
-2.98167
-2.92407
-2.86887
-2.81607
-2.76567
-2.71767
-2.67207
-2.62887
-2.58807
-2.54967
-2.51367
-2.48007
-2.44887
-2.42007
-2.39367
-2.36967
-2.34807
-2.32887
-2.31207
-2.29767
-2.28567
-2.27607
-2.26887
-2.26407
-2.26167
-2.26167
-2.26407
-2.26887
-2.27607
-2.28567
-2.29767
-2.31207
-2.32887
-2.34807
-2.36967
-2.39367
-2.42007
-2.44887
-2.48007
-2.51367
-2.54967
-2.58807
-2.62887
-2.67207
-2.71767
-2.76567
-2.81607
-2.86887
-2.92407
-2.98167
-3.04167
-3.10407
-3.16887
-3.23607
-3.30567
-3.37767
-3.45207
-3.52887
-3.60807
-3.68967
-3.77367
-3.86007
-3.94887
-4.04007
-4.13367
-4.22967
-4.32807
-4.42887
-4.53207
-4.63767
-4.74567
-4.85607
-4.96887
-5.08407
-5.20167
-5.09127
-4.97367
-4.85847
-4.74567
-4.63527
-4.52727
-4.42167
-4.31847
-4.21767
-4.11927
-4.02327
-3.92967
-3.83847
-3.74967
-3.66327
-3.57927
-3.49767
-3.41847
-3.34167
-3.26727
-3.19527
-3.12567
-3.05847
-2.99367
-2.93127
-2.87127
-2.81367
-2.75847
-2.70567
-2.65527
-2.60727
-2.56167
-2.51847
-2.47767
-2.43927
-2.40327
-2.36967
-2.33847
-2.30967
-2.28327
-2.25927
-2.23767
-2.21847
-2.20167
-2.18727
-2.17527
-2.16567
-2.15847
-2.15367
-2.15127
-2.15127
-2.15367
-2.15847
-2.16567
-2.17527
-2.18727
-2.20167
-2.21847
-2.23767
-2.25927
-2.28327
-2.30967
-2.33847
-2.36967
-2.40327
-2.43927
-2.47767
-2.51847
-2.56167
-2.60727
-2.65527
-2.70567
-2.75847
-2.81367
-2.87127
-2.93127
-2.99367
-3.05847
-3.12567
-3.19527
-3.26727
-3.34167
-3.41847
-3.49767
-3.57927
-3.66327
-3.74967
-3.83847
-3.92967
-4.02327
-4.11927
-4.21767
-4.31847
-4.42167
-4.52727
-4.63527
-4.74567
-4.85847
-4.97367
-5.09127
-4.98327
-4.86567
-4.75047
-4.63767
-4.52727
-4.41927
-4.31367
-4.21047
-4.10967
-4.01127
-3.91527
-3.82167
-3.73047
-3.64167
-3.55527
-3.47127
-3.38967
-3.31047
-3.23367
-3.15927
-3.08727
-3.01767
-2.95047
-2.88567
-2.82327
-2.76327
-2.70567
-2.65047
-2.59767
-2.54727
-2.49927
-2.45367
-2.41047
-2.36967
-2.33127
-2.29527
-2.26167
-2.23047
-2.20167
-2.17527
-2.15127
-2.12967
-2.11047
-2.09367
-2.07927
-2.06727
-2.05767
-2.05047
-2.04567
-2.04327
-2.04327
-2.04567
-2.05047
-2.05767
-2.06727
-2.07927
-2.09367
-2.11047
-2.12967
-2.15127
-2.17527
-2.20167
-2.23047
-2.26167
-2.29527
-2.33127
-2.36967
-2.41047
-2.45367
-2.49927
-2.54727
-2.59767
-2.65047
-2.70567
-2.76327
-2.82327
-2.88567
-2.95047
-3.01767
-3.08727
-3.15927
-3.23367
-3.31047
-3.38967
-3.47127
-3.55527
-3.64167
-3.73047
-3.82167
-3.91527
-4.01127
-4.10967
-4.21047
-4.31367
-4.41927
-4.52727
-4.63767
-4.75047
-4.86567
-4.98327
-4.87767
-4.76007
-4.64487
-4.53207
-4.42167
-4.31367
-4.20807
-4.10487
-4.00407
-3.90567
-3.80967
-3.71607
-3.62487
-3.53607
-3.44967
-3.36567
-3.28407
-3.20487
-3.12807
-3.05367
-2.98167
-2.91207
-2.84487
-2.78007
-2.71767
-2.65767
-2.60007
-2.54487
-2.49207
-2.44167
-2.39367
-2.34807
-2.30487
-2.26407
-2.22567
-2.18967
-2.15607
-2.12487
-2.09607
-2.06967
-2.04567
-2.02407
-2.00487
-1.98807
-1.97367
-1.96167
-1.95207
-1.94487
-1.94007
-1.93767
-1.93767
-1.94007
-1.94487
-1.95207
-1.96167
-1.97367
-1.98807
-2.00487
-2.02407
-2.04567
-2.06967
-2.09607
-2.12487
-2.15607
-2.18967
-2.22567
-2.26407
-2.30487
-2.34807
-2.39367
-2.44167
-2.49207
-2.54487
-2.60007
-2.65767
-2.71767
-2.78007
-2.84487
-2.91207
-2.98167
-3.05367
-3.12807
-3.20487
-3.28407
-3.36567
-3.44967
-3.53607
-3.62487
-3.71607
-3.80967
-3.90567
-4.00407
-4.10487
-4.20807
-4.31367
-4.42167
-4.53207
-4.64487
-4.76007
-4.87767
-4.77447
-4.65687
-4.54167
-4.42887
-4.31847
-4.21047
-4.10487
-4.00167
-3.90087
-3.80247
-3.70647
-3.61287
-3.52167
-3.43287
-3.34647
-3.26247
-3.18087
-3.10167
-3.02487
-2.95047
-2.87847
-2.80887
-2.74167
-2.67687
-2.61447
-2.55447
-2.49687
-2.44167
-2.38887
-2.33847
-2.29047
-2.24487
-2.20167
-2.16087
-2.12247
-2.08647
-2.05287
-2.02167
-1.99287
-1.96647
-1.94247
-1.92087
-1.90167
-1.88487
-1.87047
-1.85847
-1.84887
-1.84167
-1.83687
-1.83447
-1.83447
-1.83687
-1.84167
-1.84887
-1.85847
-1.87047
-1.88487
-1.90167
-1.92087
-1.94247
-1.96647
-1.99287
-2.02167
-2.05287
-2.08647
-2.12247
-2.16087
-2.20167
-2.24487
-2.29047
-2.33847
-2.38887
-2.44167
-2.49687
-2.55447
-2.61447
-2.67687
-2.74167
-2.80887
-2.87847
-2.95047
-3.02487
-3.10167
-3.18087
-3.26247
-3.34647
-3.43287
-3.52167
-3.61287
-3.70647
-3.80247
-3.90087
-4.00167
-4.10487
-4.21047
-4.31847
-4.42887
-4.54167
-4.65687
-4.77447
-4.67367
-4.55607
-4.44087
-4.32807
-4.21767
-4.10967
-4.00407
-3.90087
-3.80007
-3.70167
-3.60567
-3.51207
-3.42087
-3.33207
-3.24567
-3.16167
-3.08007
-3.00087
-2.92407
-2.84967
-2.77767
-2.70807
-2.64087
-2.57607
-2.51367
-2.45367
-2.39607
-2.34087
-2.28807
-2.23767
-2.18967
-2.14407
-2.10087
-2.06007
-2.02167
-1.98567
-1.95207
-1.92087
-1.89207
-1.86567
-1.84167
-1.82007
-1.80087
-1.78407
-1.76967
-1.75767
-1.74807
-1.74087
-1.73607
-1.73367
-1.73367
-1.73607
-1.74087
-1.74807
-1.75767
-1.76967
-1.78407
-1.80087
-1.82007
-1.84167
-1.86567
-1.89207
-1.92087
-1.95207
-1.98567
-2.02167
-2.06007
-2.10087
-2.14407
-2.18967
-2.23767
-2.28807
-2.34087
-2.39607
-2.45367
-2.51367
-2.57607
-2.64087
-2.70807
-2.77767
-2.84967
-2.92407
-3.00087
-3.08007
-3.16167
-3.24567
-3.33207
-3.42087
-3.51207
-3.60567
-3.70167
-3.80007
-3.90087
-4.00407
-4.10967
-4.21767
-4.32807
-4.44087
-4.55607
-4.67367
-4.57527
-4.45767
-4.34247
-4.22967
-4.11927
-4.01127
-3.90567
-3.80247
-3.70167
-3.60327
-3.50727
-3.41367
-3.32247
-3.23367
-3.14727
-3.06327
-2.98167
-2.90247
-2.82567
-2.75127
-2.67927
-2.60967
-2.54247
-2.47767
-2.41527
-2.35527
-2.29767
-2.24247
-2.18967
-2.13927
-2.09127
-2.04567
-2.00247
-1.96167
-1.92327
-1.88727
-1.85367
-1.82247
-1.79367
-1.76727
-1.74327
-1.72167
-1.70247
-1.68567
-1.67127
-1.65927
-1.64967
-1.64247
-1.63767
-1.63527
-1.63527
-1.63767
-1.64247
-1.64967
-1.65927
-1.67127
-1.68567
-1.70247
-1.72167
-1.74327
-1.76727
-1.79367
-1.82247
-1.85367
-1.88727
-1.92327
-1.96167
-2.00247
-2.04567
-2.09127
-2.13927
-2.18967
-2.24247
-2.29767
-2.35527
-2.41527
-2.47767
-2.54247
-2.60967
-2.67927
-2.75127
-2.82567
-2.90247
-2.98167
-3.06327
-3.14727
-3.23367
-3.32247
-3.41367
-3.50727
-3.60327
-3.70167
-3.80247
-3.90567
-4.01127
-4.11927
-4.22967
-4.34247
-4.45767
-4.57527
-4.47927
-4.36167
-4.24647
-4.13367
-4.02327
-3.91527
-3.80967
-3.70647
-3.60567
-3.50727
-3.41127
-3.31767
-3.22647
-3.13767
-3.05127
-2.96727
-2.88567
-2.80647
-2.72967
-2.65527
-2.58327
-2.51367
-2.44647
-2.38167
-2.31927
-2.25927
-2.20167
-2.14647
-2.09367
-2.04327
-1.99527
-1.94967
-1.90647
-1.86567
-1.82727
-1.79127
-1.75767
-1.72647
-1.69767
-1.67127
-1.64727
-1.62567
-1.60647
-1.58967
-1.57527
-1.56327
-1.55367
-1.54647
-1.54167
-1.53927
-1.53927
-1.54167
-1.54647
-1.55367
-1.56327
-1.57527
-1.58967
-1.60647
-1.62567
-1.64727
-1.67127
-1.69767
-1.72647
-1.75767
-1.79127
-1.82727
-1.86567
-1.90647
-1.94967
-1.99527
-2.04327
-2.09367
-2.14647
-2.20167
-2.25927
-2.31927
-2.38167
-2.44647
-2.51367
-2.58327
-2.65527
-2.72967
-2.80647
-2.88567
-2.96727
-3.05127
-3.13767
-3.22647
-3.31767
-3.41127
-3.50727
-3.60567
-3.70647
-3.80967
-3.91527
-4.02327
-4.13367
-4.24647
-4.36167
-4.47927
-4.38567
-4.26807
-4.15287
-4.04007
-3.92967
-3.82167
-3.71607
-3.61287
-3.51207
-3.41367
-3.31767
-3.22407
-3.13287
-3.04407
-2.95767
-2.87367
-2.79207
-2.71287
-2.63607
-2.56167
-2.48967
-2.42007
-2.35287
-2.28807
-2.22567
-2.16567
-2.10807
-2.05287
-2.00007
-1.94967
-1.90167
-1.85607
-1.81287
-1.77207
-1.73367
-1.69767
-1.66407
-1.63287
-1.60407
-1.57767
-1.55367
-1.53207
-1.51287
-1.49607
-1.48167
-1.46967
-1.46007
-1.45287
-1.44807
-1.44567
-1.44567
-1.44807
-1.45287
-1.46007
-1.46967
-1.48167
-1.49607
-1.51287
-1.53207
-1.55367
-1.57767
-1.60407
-1.63287
-1.66407
-1.69767
-1.73367
-1.77207
-1.81287
-1.85607
-1.90167
-1.94967
-2.00007
-2.05287
-2.10807
-2.16567
-2.22567
-2.28807
-2.35287
-2.42007
-2.48967
-2.56167
-2.63607
-2.71287
-2.79207
-2.87367
-2.95767
-3.04407
-3.13287
-3.22407
-3.31767
-3.41367
-3.51207
-3.61287
-3.71607
-3.82167
-3.92967
-4.04007
-4.15287
-4.26807
-4.38567
-4.29447
-4.17687
-4.06167
-3.94887
-3.83847
-3.73047
-3.62487
-3.52167
-3.42087
-3.32247
-3.22647
-3.13287
-3.04167
-2.95287
-2.86647
-2.78247
-2.70087
-2.62167
-2.54487
-2.47047
-2.39847
-2.32887
-2.26167
-2.19687
-2.13447
-2.07447
-2.01687
-1.96167
-1.90887
-1.85847
-1.81047
-1.76487
-1.72167
-1.68087
-1.64247
-1.60647
-1.57287
-1.54167
-1.51287
-1.48647
-1.46247
-1.44087
-1.42167
-1.40487
-1.39047
-1.37847
-1.36887
-1.36167
-1.35687
-1.35447
-1.35447
-1.35687
-1.36167
-1.36887
-1.37847
-1.39047
-1.40487
-1.42167
-1.44087
-1.46247
-1.48647
-1.51287
-1.54167
-1.57287
-1.60647
-1.64247
-1.68087
-1.72167
-1.76487
-1.81047
-1.85847
-1.90887
-1.96167
-2.01687
-2.07447
-2.13447
-2.19687
-2.26167
-2.32887
-2.39847
-2.47047
-2.54487
-2.62167
-2.70087
-2.78247
-2.86647
-2.95287
-3.04167
-3.13287
-3.22647
-3.32247
-3.42087
-3.52167
-3.62487
-3.73047
-3.83847
-3.94887
-4.06167
-4.17687
-4.29447
-4.20567
-4.08807
-3.97287
-3.86007
-3.74967
-3.64167
-3.53607
-3.43287
-3.33207
-3.23367
-3.13767
-3.04407
-2.95287
-2.86407
-2.77767
-2.69367
-2.61207
-2.53287
-2.45607
-2.38167
-2.30967
-2.24007
-2.17287
-2.10807
-2.04567
-1.98567
-1.92807
-1.87287
-1.82007
-1.76967
-1.72167
-1.67607
-1.63287
-1.59207
-1.55367
-1.51767
-1.48407
-1.45287
-1.42407
-1.39767
-1.37367
-1.35207
-1.33287
-1.31607
-1.30167
-1.28967
-1.28007
-1.27287
-1.26807
-1.26567
-1.26567
-1.26807
-1.27287
-1.28007
-1.28967
-1.30167
-1.31607
-1.33287
-1.35207
-1.37367
-1.39767
-1.42407
-1.45287
-1.48407
-1.51767
-1.55367
-1.59207
-1.63287
-1.67607
-1.72167
-1.76967
-1.82007
-1.87287
-1.92807
-1.98567
-2.04567
-2.10807
-2.17287
-2.24007
-2.30967
-2.38167
-2.45607
-2.53287
-2.61207
-2.69367
-2.77767
-2.86407
-2.95287
-3.04407
-3.13767
-3.23367
-3.33207
-3.43287
-3.53607
-3.64167
-3.74967
-3.86007
-3.97287
-4.08807
-4.20567
-4.11927
-4.00167
-3.88647
-3.77367
-3.66327
-3.55527
-3.44967
-3.34647
-3.24567
-3.14727
-3.05127
-2.95767
-2.86647
-2.77767
-2.69127
-2.60727
-2.52567
-2.44647
-2.36967
-2.29527
-2.22327
-2.15367
-2.08647
-2.02167
-1.95927
-1.89927
-1.84167
-1.78647
-1.73367
-1.68327
-1.63527
-1.58967
-1.54647
-1.50567
-1.46727
-1.43127
-1.39767
-1.36647
-1.33767
-1.31127
-1.28727
-1.26567
-1.24647
-1.22967
-1.21527
-1.20327
-1.19367
-1.18647
-1.18167
-1.17927
-1.17927
-1.18167
-1.18647
-1.19367
-1.20327
-1.21527
-1.22967
-1.24647
-1.26567
-1.28727
-1.31127
-1.33767
-1.36647
-1.39767
-1.43127
-1.46727
-1.50567
-1.54647
-1.58967
-1.63527
-1.68327
-1.73367
-1.78647
-1.84167
-1.89927
-1.95927
-2.02167
-2.08647
-2.15367
-2.22327
-2.29527
-2.36967
-2.44647
-2.52567
-2.60727
-2.69127
-2.77767
-2.86647
-2.95767
-3.05127
-3.14727
-3.24567
-3.34647
-3.44967
-3.55527
-3.66327
-3.77367
-3.88647
-4.00167
-4.11927
-4.03527
-3.91767
-3.80247
-3.68967
-3.57927
-3.47127
-3.36567
-3.26247
-3.16167
-3.06327
-2.96727
-2.87367
-2.78247
-2.69367
-2.60727
-2.52327
-2.44167
-2.36247
-2.28567
-2.21127
-2.13927
-2.06967
-2.00247
-1.93767
-1.87527
-1.81527
-1.75767
-1.70247
-1.64967
-1.59927
-1.55127
-1.50567
-1.46247
-1.42167
-1.38327
-1.34727
-1.31367
-1.28247
-1.25367
-1.22727
-1.20327
-1.18167
-1.16247
-1.14567
-1.13127
-1.11927
-1.10967
-1.10247
-1.09767
-1.09527
-1.09527
-1.09767
-1.10247
-1.10967
-1.11927
-1.13127
-1.14567
-1.16247
-1.18167
-1.20327
-1.22727
-1.25367
-1.28247
-1.31367
-1.34727
-1.38327
-1.42167
-1.46247
-1.50567
-1.55127
-1.59927
-1.64967
-1.70247
-1.75767
-1.81527
-1.87527
-1.93767
-2.00247
-2.06967
-2.13927
-2.21127
-2.28567
-2.36247
-2.44167
-2.52327
-2.60727
-2.69367
-2.78247
-2.87367
-2.96727
-3.06327
-3.16167
-3.26247
-3.36567
-3.47127
-3.57927
-3.68967
-3.80247
-3.91767
-4.03527
-3.95367
-3.83607
-3.72087
-3.60807
-3.49767
-3.38967
-3.28407
-3.18087
-3.08007
-2.98167
-2.88567
-2.79207
-2.70087
-2.61207
-2.52567
-2.44167
-2.36007
-2.28087
-2.20407
-2.12967
-2.05767
-1.98807
-1.92087
-1.85607
-1.79367
-1.73367
-1.67607
-1.62087
-1.56807
-1.51767
-1.46967
-1.42407
-1.38087
-1.34007
-1.30167
-1.26567
-1.23207
-1.20087
-1.17207
-1.14567
-1.12167
-1.10007
-1.08087
-1.06407
-1.04967
-1.03767
-1.02807
-1.02087
-1.01607
-1.01367
-1.01367
-1.01607
-1.02087
-1.02807
-1.03767
-1.04967
-1.06407
-1.08087
-1.10007
-1.12167
-1.14567
-1.17207
-1.20087
-1.23207
-1.26567
-1.30167
-1.34007
-1.38087
-1.42407
-1.46967
-1.51767
-1.56807
-1.62087
-1.67607
-1.73367
-1.79367
-1.85607
-1.92087
-1.98807
-2.05767
-2.12967
-2.20407
-2.28087
-2.36007
-2.44167
-2.52567
-2.61207
-2.70087
-2.79207
-2.88567
-2.98167
-3.08007
-3.18087
-3.28407
-3.38967
-3.49767
-3.60807
-3.72087
-3.83607
-3.95367
-3.87447
-3.75687
-3.64167
-3.52887
-3.41847
-3.31047
-3.20487
-3.10167
-3.00087
-2.90247
-2.80647
-2.71287
-2.62167
-2.53287
-2.44647
-2.36247
-2.28087
-2.20167
-2.12487
-2.05047
-1.97847
-1.90887
-1.84167
-1.77687
-1.71447
-1.65447
-1.59687
-1.54167
-1.48887
-1.43847
-1.39047
-1.34487
-1.30167
-1.26087
-1.22247
-1.18647
-1.15287
-1.12167
-1.09287
-1.06647
-1.04247
-1.02087
-1.00167
-0.984867
-0.970467
-0.958467
-0.948867
-0.941667
-0.936867
-0.934467
-0.934467
-0.936867
-0.941667
-0.948867
-0.958467
-0.970467
-0.984867
-1.00167
-1.02087
-1.04247
-1.06647
-1.09287
-1.12167
-1.15287
-1.18647
-1.22247
-1.26087
-1.30167
-1.34487
-1.39047
-1.43847
-1.48887
-1.54167
-1.59687
-1.65447
-1.71447
-1.77687
-1.84167
-1.90887
-1.97847
-2.05047
-2.12487
-2.20167
-2.28087
-2.36247
-2.44647
-2.53287
-2.62167
-2.71287
-2.80647
-2.90247
-3.00087
-3.10167
-3.20487
-3.31047
-3.41847
-3.52887
-3.64167
-3.75687
-3.87447
-3.79767
-3.68007
-3.56487
-3.45207
-3.34167
-3.23367
-3.12807
-3.02487
-2.92407
-2.82567
-2.72967
-2.63607
-2.54487
-2.45607
-2.36967
-2.28567
-2.20407
-2.12487
-2.04807
-1.97367
-1.90167
-1.83207
-1.76487
-1.70007
-1.63767
-1.57767
-1.52007
-1.46487
-1.41207
-1.36167
-1.31367
-1.26807
-1.22487
-1.18407
-1.14567
-1.10967
-1.07607
-1.04487
-1.01607
-0.989667
-0.965667
-0.944067
-0.924867
-0.908067
-0.893667
-0.881667
-0.872067
-0.864867
-0.860067
-0.857667
-0.857667
-0.860067
-0.864867
-0.872067
-0.881667
-0.893667
-0.908067
-0.924867
-0.944067
-0.965667
-0.989667
-1.01607
-1.04487
-1.07607
-1.10967
-1.14567
-1.18407
-1.22487
-1.26807
-1.31367
-1.36167
-1.41207
-1.46487
-1.52007
-1.57767
-1.63767
-1.70007
-1.76487
-1.83207
-1.90167
-1.97367
-2.04807
-2.12487
-2.20407
-2.28567
-2.36967
-2.45607
-2.54487
-2.63607
-2.72967
-2.82567
-2.92407
-3.02487
-3.12807
-3.23367
-3.34167
-3.45207
-3.56487
-3.68007
-3.79767
-3.72327
-3.60567
-3.49047
-3.37767
-3.26727
-3.15927
-3.05367
-2.95047
-2.84967
-2.75127
-2.65527
-2.56167
-2.47047
-2.38167
-2.29527
-2.21127
-2.12967
-2.05047
-1.97367
-1.89927
-1.82727
-1.75767
-1.69047
-1.62567
-1.56327
-1.50327
-1.44567
-1.39047
-1.33767
-1.28727
-1.23927
-1.19367
-1.15047
-1.10967
-1.07127
-1.03527
-1.00167
-0.970467
-0.941667
-0.915267
-0.891267
-0.869667
-0.850467
-0.833667
-0.819267
-0.807267
-0.797667
-0.790467
-0.785667
-0.783267
-0.783267
-0.785667
-0.790467
-0.797667
-0.807267
-0.819267
-0.833667
-0.850467
-0.869667
-0.891267
-0.915267
-0.941667
-0.970467
-1.00167
-1.03527
-1.07127
-1.10967
-1.15047
-1.19367
-1.23927
-1.28727
-1.33767
-1.39047
-1.44567
-1.50327
-1.56327
-1.62567
-1.69047
-1.75767
-1.82727
-1.89927
-1.97367
-2.05047
-2.12967
-2.21127
-2.29527
-2.38167
-2.47047
-2.56167
-2.65527
-2.75127
-2.84967
-2.95047
-3.05367
-3.15927
-3.26727
-3.37767
-3.49047
-3.60567
-3.72327
-3.65127
-3.53367
-3.41847
-3.30567
-3.19527
-3.08727
-2.98167
-2.87847
-2.77767
-2.67927
-2.58327
-2.48967
-2.39847
-2.30967
-2.22327
-2.13927
-2.05767
-1.97847
-1.90167
-1.82727
-1.75527
-1.68567
-1.61847
-1.55367
-1.49127
-1.43127
-1.37367
-1.31847
-1.26567
-1.21527
-1.16727
-1.12167
-1.07847
-1.03767
-0.999267
-0.963267
-0.929667
-0.898467
-0.869667
-0.843267
-0.819267
-0.797667
-0.778467
-0.761667
-0.747267
-0.735267
-0.725667
-0.718467
-0.713667
-0.711267
-0.711267
-0.713667
-0.718467
-0.725667
-0.735267
-0.747267
-0.761667
-0.778467
-0.797667
-0.819267
-0.843267
-0.869667
-0.898467
-0.929667
-0.963267
-0.999267
-1.03767
-1.07847
-1.12167
-1.16727
-1.21527
-1.26567
-1.31847
-1.37367
-1.43127
-1.49127
-1.55367
-1.61847
-1.68567
-1.75527
-1.82727
-1.90167
-1.97847
-2.05767
-2.13927
-2.22327
-2.30967
-2.39847
-2.48967
-2.58327
-2.67927
-2.77767
-2.87847
-2.98167
-3.08727
-3.19527
-3.30567
-3.41847
-3.53367
-3.65127
-3.58167
-3.46407
-3.34887
-3.23607
-3.12567
-3.01767
-2.91207
-2.80887
-2.70807
-2.60967
-2.51367
-2.42007
-2.32887
-2.24007
-2.15367
-2.06967
-1.98807
-1.90887
-1.83207
-1.75767
-1.68567
-1.61607
-1.54887
-1.48407
-1.42167
-1.36167
-1.30407
-1.24887
-1.19607
-1.14567
-1.09767
-1.05207
-1.00887
-0.968067
-0.929667
-0.893667
-0.860067
-0.828867
-0.800067
-0.773667
-0.749667
-0.728067
-0.708867
-0.692067
-0.677667
-0.665667
-0.656067
-0.648867
-0.644067
-0.641667
-0.641667
-0.644067
-0.648867
-0.656067
-0.665667
-0.677667
-0.692067
-0.708867
-0.728067
-0.749667
-0.773667
-0.800067
-0.828867
-0.860067
-0.893667
-0.929667
-0.968067
-1.00887
-1.05207
-1.09767
-1.14567
-1.19607
-1.24887
-1.30407
-1.36167
-1.42167
-1.48407
-1.54887
-1.61607
-1.68567
-1.75767
-1.83207
-1.90887
-1.98807
-2.06967
-2.15367
-2.24007
-2.32887
-2.42007
-2.51367
-2.60967
-2.70807
-2.80887
-2.91207
-3.01767
-3.12567
-3.23607
-3.34887
-3.46407
-3.58167
-3.51447
-3.39687
-3.28167
-3.16887
-3.05847
-2.95047
-2.84487
-2.74167
-2.64087
-2.54247
-2.44647
-2.35287
-2.26167
-2.17287
-2.08647
-2.00247
-1.92087
-1.84167
-1.76487
-1.69047
-1.61847
-1.54887
-1.48167
-1.41687
-1.35447
-1.29447
-1.23687
-1.18167
-1.12887
-1.07847
-1.03047
-0.984867
-0.941667
-0.900867
-0.862467
-0.826467
-0.792867
-0.761667
-0.732867
-0.706467
-0.682467
-0.660867
-0.641667
-0.624867
-0.610467
-0.598467
-0.588867
-0.581667
-0.576867
-0.574467
-0.574467
-0.576867
-0.581667
-0.588867
-0.598467
-0.610467
-0.624867
-0.641667
-0.660867
-0.682467
-0.706467
-0.732867
-0.761667
-0.792867
-0.826467
-0.862467
-0.900867
-0.941667
-0.984867
-1.03047
-1.07847
-1.12887
-1.18167
-1.23687
-1.29447
-1.35447
-1.41687
-1.48167
-1.54887
-1.61847
-1.69047
-1.76487
-1.84167
-1.92087
-2.00247
-2.08647
-2.17287
-2.26167
-2.35287
-2.44647
-2.54247
-2.64087
-2.74167
-2.84487
-2.95047
-3.05847
-3.16887
-3.28167
-3.39687
-3.51447
-3.44967
-3.33207
-3.21687
-3.10407
-2.99367
-2.88567
-2.78007
-2.67687
-2.57607
-2.47767
-2.38167
-2.28807
-2.19687
-2.10807
-2.02167
-1.93767
-1.85607
-1.77687
-1.70007
-1.62567
-1.55367
-1.48407
-1.41687
-1.35207
-1.28967
-1.22967
-1.17207
-1.11687
-1.06407
-1.01367
-0.965667
-0.920067
-0.876867
-0.836067
-0.797667
-0.761667
-0.728067
-0.696867
-0.668067
-0.641667
-0.617667
-0.596067
-0.576867
-0.560067
-0.545667
-0.533667
-0.524067
-0.516867
-0.512067
-0.509667
-0.509667
-0.512067
-0.516867
-0.524067
-0.533667
-0.545667
-0.560067
-0.576867
-0.596067
-0.617667
-0.641667
-0.668067
-0.696867
-0.728067
-0.761667
-0.797667
-0.836067
-0.876867
-0.920067
-0.965667
-1.01367
-1.06407
-1.11687
-1.17207
-1.22967
-1.28967
-1.35207
-1.41687
-1.48407
-1.55367
-1.62567
-1.70007
-1.77687
-1.85607
-1.93767
-2.02167
-2.10807
-2.19687
-2.28807
-2.38167
-2.47767
-2.57607
-2.67687
-2.78007
-2.88567
-2.99367
-3.10407
-3.21687
-3.33207
-3.44967
-3.38727
-3.26967
-3.15447
-3.04167
-2.93127
-2.82327
-2.71767
-2.61447
-2.51367
-2.41527
-2.31927
-2.22567
-2.13447
-2.04567
-1.95927
-1.87527
-1.79367
-1.71447
-1.63767
-1.56327
-1.49127
-1.42167
-1.35447
-1.28967
-1.22727
-1.16727
-1.10967
-1.05447
-1.00167
-0.951267
-0.903267
-0.857667
-0.814467
-0.773667
-0.735267
-0.699267
-0.665667
-0.634467
-0.605667
-0.579267
-0.555267
-0.533667
-0.514467
-0.497667
-0.483267
-0.471267
-0.461667
-0.454467
-0.449667
-0.447267
-0.447267
-0.449667
-0.454467
-0.461667
-0.471267
-0.483267
-0.497667
-0.514467
-0.533667
-0.555267
-0.579267
-0.605667
-0.634467
-0.665667
-0.699267
-0.735267
-0.773667
-0.814467
-0.857667
-0.903267
-0.951267
-1.00167
-1.05447
-1.10967
-1.16727
-1.22727
-1.28967
-1.35447
-1.42167
-1.49127
-1.56327
-1.63767
-1.71447
-1.79367
-1.87527
-1.95927
-2.04567
-2.13447
-2.22567
-2.31927
-2.41527
-2.51367
-2.61447
-2.71767
-2.82327
-2.93127
-3.04167
-3.15447
-3.26967
-3.38727
-3.32727
-3.20967
-3.09447
-2.98167
-2.87127
-2.76327
-2.65767
-2.55447
-2.45367
-2.35527
-2.25927
-2.16567
-2.07447
-1.98567
-1.89927
-1.81527
-1.73367
-1.65447
-1.57767
-1.50327
-1.43127
-1.36167
-1.29447
-1.22967
-1.16727
-1.10727
-1.04967
-0.994467
-0.941667
-0.891267
-0.843267
-0.797667
-0.754467
-0.713667
-0.675267
-0.639267
-0.605667
-0.574467
-0.545667
-0.519267
-0.495267
-0.473667
-0.454467
-0.437667
-0.423267
-0.411267
-0.401667
-0.394467
-0.389667
-0.387267
-0.387267
-0.389667
-0.394467
-0.401667
-0.411267
-0.423267
-0.437667
-0.454467
-0.473667
-0.495267
-0.519267
-0.545667
-0.574467
-0.605667
-0.639267
-0.675267
-0.713667
-0.754467
-0.797667
-0.843267
-0.891267
-0.941667
-0.994467
-1.04967
-1.10727
-1.16727
-1.22967
-1.29447
-1.36167
-1.43127
-1.50327
-1.57767
-1.65447
-1.73367
-1.81527
-1.89927
-1.98567
-2.07447
-2.16567
-2.25927
-2.35527
-2.45367
-2.55447
-2.65767
-2.76327
-2.87127
-2.98167
-3.09447
-3.20967
-3.32727
-3.26967
-3.15207
-3.03687
-2.92407
-2.81367
-2.70567
-2.60007
-2.49687
-2.39607
-2.29767
-2.20167
-2.10807
-2.01687
-1.92807
-1.84167
-1.75767
-1.67607
-1.59687
-1.52007
-1.44567
-1.37367
-1.30407
-1.23687
-1.17207
-1.10967
-1.04967
-0.992067
-0.936867
-0.884067
-0.833667
-0.785667
-0.740067
-0.696867
-0.656067
-0.617667
-0.581667
-0.548067
-0.516867
-0.488067
-0.461667
-0.437667
-0.416067
-0.396867
-0.380067
-0.365667
-0.353667
-0.344067
-0.336867
-0.332067
-0.329667
-0.329667
-0.332067
-0.336867
-0.344067
-0.353667
-0.365667
-0.380067
-0.396867
-0.416067
-0.437667
-0.461667
-0.488067
-0.516867
-0.548067
-0.581667
-0.617667
-0.656067
-0.696867
-0.740067
-0.785667
-0.833667
-0.884067
-0.936867
-0.992067
-1.04967
-1.10967
-1.17207
-1.23687
-1.30407
-1.37367
-1.44567
-1.52007
-1.59687
-1.67607
-1.75767
-1.84167
-1.92807
-2.01687
-2.10807
-2.20167
-2.29767
-2.39607
-2.49687
-2.60007
-2.70567
-2.81367
-2.92407
-3.03687
-3.15207
-3.26967
-3.21447
-3.09687
-2.98167
-2.86887
-2.75847
-2.65047
-2.54487
-2.44167
-2.34087
-2.24247
-2.14647
-2.05287
-1.96167
-1.87287
-1.78647
-1.70247
-1.62087
-1.54167
-1.46487
-1.39047
-1.31847
-1.24887
-1.18167
-1.11687
-1.05447
-0.994467
-0.936867
-0.881667
-0.828867
-0.778467
-0.730467
-0.684867
-0.641667
-0.600867
-0.562467
-0.526467
-0.492867
-0.461667
-0.432867
-0.406467
-0.382467
-0.360867
-0.341667
-0.324867
-0.310467
-0.298467
-0.288867
-0.281667
-0.276867
-0.274467
-0.274467
-0.276867
-0.281667
-0.288867
-0.298467
-0.310467
-0.324867
-0.341667
-0.360867
-0.382467
-0.406467
-0.432867
-0.461667
-0.492867
-0.526467
-0.562467
-0.600867
-0.641667
-0.684867
-0.730467
-0.778467
-0.828867
-0.881667
-0.936867
-0.994467
-1.05447
-1.11687
-1.18167
-1.24887
-1.31847
-1.39047
-1.46487
-1.54167
-1.62087
-1.70247
-1.78647
-1.87287
-1.96167
-2.05287
-2.14647
-2.24247
-2.34087
-2.44167
-2.54487
-2.65047
-2.75847
-2.86887
-2.98167
-3.09687
-3.21447
-3.16167
-3.04407
-2.92887
-2.81607
-2.70567
-2.59767
-2.49207
-2.38887
-2.28807
-2.18967
-2.09367
-2.00007
-1.90887
-1.82007
-1.73367
-1.64967
-1.56807
-1.48887
-1.41207
-1.33767
-1.26567
-1.19607
-1.12887
-1.06407
-1.00167
-0.941667
-0.884067
-0.828867
-0.776067
-0.725667
-0.677667
-0.632067
-0.588867
-0.548067
-0.509667
-0.473667
-0.440067
-0.408867
-0.380067
-0.353667
-0.329667
-0.308067
-0.288867
-0.272067
-0.257667
-0.245667
-0.236067
-0.228867
-0.224067
-0.221667
-0.221667
-0.224067
-0.228867
-0.236067
-0.245667
-0.257667
-0.272067
-0.288867
-0.308067
-0.329667
-0.353667
-0.380067
-0.408867
-0.440067
-0.473667
-0.509667
-0.548067
-0.588867
-0.632067
-0.677667
-0.725667
-0.776067
-0.828867
-0.884067
-0.941667
-1.00167
-1.06407
-1.12887
-1.19607
-1.26567
-1.33767
-1.41207
-1.48887
-1.56807
-1.64967
-1.73367
-1.82007
-1.90887
-2.00007
-2.09367
-2.18967
-2.28807
-2.38887
-2.49207
-2.59767
-2.70567
-2.81607
-2.92887
-3.04407
-3.16167
-3.11127
-2.99367
-2.87847
-2.76567
-2.65527
-2.54727
-2.44167
-2.33847
-2.23767
-2.13927
-2.04327
-1.94967
-1.85847
-1.76967
-1.68327
-1.59927
-1.51767
-1.43847
-1.36167
-1.28727
-1.21527
-1.14567
-1.07847
-1.01367
-0.951267
-0.891267
-0.833667
-0.778467
-0.725667
-0.675267
-0.627267
-0.581667
-0.538467
-0.497667
-0.459267
-0.423267
-0.389667
-0.358467
-0.329667
-0.303267
-0.279267
-0.257667
-0.238467
-0.221667
-0.207267
-0.195267
-0.185667
-0.178467
-0.173667
-0.171267
-0.171267
-0.173667
-0.178467
-0.185667
-0.195267
-0.207267
-0.221667
-0.238467
-0.257667
-0.279267
-0.303267
-0.329667
-0.358467
-0.389667
-0.423267
-0.459267
-0.497667
-0.538467
-0.581667
-0.627267
-0.675267
-0.725667
-0.778467
-0.833667
-0.891267
-0.951267
-1.01367
-1.07847
-1.14567
-1.21527
-1.28727
-1.36167
-1.43847
-1.51767
-1.59927
-1.68327
-1.76967
-1.85847
-1.94967
-2.04327
-2.13927
-2.23767
-2.33847
-2.44167
-2.54727
-2.65527
-2.76567
-2.87847
-2.99367
-3.11127
-3.06327
-2.94567
-2.83047
-2.71767
-2.60727
-2.49927
-2.39367
-2.29047
-2.18967
-2.09127
-1.99527
-1.90167
-1.81047
-1.72167
-1.63527
-1.55127
-1.46967
-1.39047
-1.31367
-1.23927
-1.16727
-1.09767
-1.03047
-0.965667
-0.903267
-0.843267
-0.785667
-0.730467
-0.677667
-0.627267
-0.579267
-0.533667
-0.490467
-0.449667
-0.411267
-0.375267
-0.341667
-0.310467
-0.281667
-0.255267
-0.231267
-0.209667
-0.190467
-0.173667
-0.159267
-0.147267
-0.137667
-0.130467
-0.125667
-0.123267
-0.123267
-0.125667
-0.130467
-0.137667
-0.147267
-0.159267
-0.173667
-0.190467
-0.209667
-0.231267
-0.255267
-0.281667
-0.310467
-0.341667
-0.375267
-0.411267
-0.449667
-0.490467
-0.533667
-0.579267
-0.627267
-0.677667
-0.730467
-0.785667
-0.843267
-0.903267
-0.965667
-1.03047
-1.09767
-1.16727
-1.23927
-1.31367
-1.39047
-1.46967
-1.55127
-1.63527
-1.72167
-1.81047
-1.90167
-1.99527
-2.09127
-2.18967
-2.29047
-2.39367
-2.49927
-2.60727
-2.71767
-2.83047
-2.94567
-3.06327
-3.01767
-2.90007
-2.78487
-2.67207
-2.56167
-2.45367
-2.34807
-2.24487
-2.14407
-2.04567
-1.94967
-1.85607
-1.76487
-1.67607
-1.58967
-1.50567
-1.42407
-1.34487
-1.26807
-1.19367
-1.12167
-1.05207
-0.984867
-0.920067
-0.857667
-0.797667
-0.740067
-0.684867
-0.632067
-0.581667
-0.533667
-0.488067
-0.444867
-0.404067
-0.365667
-0.329667
-0.296067
-0.264867
-0.236067
-0.209667
-0.185667
-0.164067
-0.144867
-0.128067
-0.113667
-0.101667
-0.0920667
-0.0848667
-0.0800667
-0.0776667
-0.0776667
-0.0800667
-0.0848667
-0.0920667
-0.101667
-0.113667
-0.128067
-0.144867
-0.164067
-0.185667
-0.209667
-0.236067
-0.264867
-0.296067
-0.329667
-0.365667
-0.404067
-0.444867
-0.488067
-0.533667
-0.581667