/*--------------------------------*- C++ -*----------------------------------*\
| =========                 |                                                 |
| \\      /  F ield         | OpenFOAM: The Open Source CFD Toolbox           |
|  \\    /   O peration     | Version:  v1812                                 |
|   \\  /    A nd           | Web:      www.OpenFOAM.com                      |
|    \\/     M anipulation  |                                                 |
\*---------------------------------------------------------------------------*/
FoamFile
{
    version     2.0;
    format      ascii;
    class       volScalarField;
    location    "3";
    object      y;
}
// * * * * * * * * * * * * * * * * * * * * * * * * * * * * * * * * * * * * * //

dimensions      [0 0 0 0 0 0 0];


internalField   nonuniform List<scalar> 
64
(
0.9946
0.994557
0.994488
0.994424
0.994424
0.994488
0.994557
0.9946
0.994557
0.994499
0.994398
0.994272
0.994272
0.994398
0.994499
0.994557
0.994488
0.994398
0.994244
0.994186
0.994186
0.994244
0.994398
0.994488
0.994424
0.994272
0.994186
0.994231
0.994231
0.994186
0.994272
0.994424
0.994424
0.994272
0.994186
0.994231
0.994231
0.994186
0.994272
0.994424
0.994488
0.994398
0.994244
0.994186
0.994186
0.994244
0.994398
0.994488
0.994557
0.994499
0.994398
0.994272
0.994272
0.994398
0.994499
0.994557
0.9946
0.994557
0.994488
0.994424
0.994424
0.994488
0.994557
0.9946
)
;

boundaryField
{
    backAndFront
    {
        type            empty;
    }
    dirichletBoundary
    {
        type            zeroGradient;
    }
}


// ************************************************************************* //
