/*--------------------------------*- C++ -*----------------------------------*\
| =========                 |                                                 |
| \\      /  F ield         | OpenFOAM: The Open Source CFD Toolbox           |
|  \\    /   O peration     | Version:  v1812                                 |
|   \\  /    A nd           | Web:      www.OpenFOAM.com                      |
|    \\/     M anipulation  |                                                 |
\*---------------------------------------------------------------------------*/
FoamFile
{
    version     2.0;
    format      ascii;
    class       volScalarField;
    location    "3";
    object      yDiff;
}
// * * * * * * * * * * * * * * * * * * * * * * * * * * * * * * * * * * * * * //

dimensions      [0 0 0 0 0 0 0];


internalField   nonuniform List<scalar> 
10000
(
42.4489
42.5665
42.6817
42.7945
42.9049
43.0129
43.1185
43.2217
43.3225
43.4209
43.5169
43.6105
43.7017
43.7905
43.8769
43.9609
44.0425
44.1217
44.1985
44.2729
44.3449
44.4145
44.4817
44.5465
44.6089
44.6689
44.7265
44.7817
44.8345
44.8849
44.9329
44.9785
45.0217
45.0625
45.1009
45.1369
45.1704
45.2016
45.2304
45.2568
45.2808
45.3024
45.3216
45.3384
45.3528
45.3648
45.3744
45.3816
45.3864
45.3888
45.3888
45.3864
45.3816
45.3744
45.3648
45.3528
45.3384
45.3216
45.3024
45.2808
45.2568
45.2304
45.2016
45.1704
45.1369
45.1009
45.0625
45.0217
44.9785
44.9329
44.8849
44.8345
44.7817
44.7265
44.6689
44.6089
44.5465
44.4817
44.4145
44.3449
44.2729
44.1985
44.1217
44.0425
43.9609
43.8769
43.7905
43.7017
43.6105
43.5169
43.4209
43.3225
43.2217
43.1185
43.0129
42.9049
42.7945
42.6817
42.5665
42.4489
42.5665
42.6841
42.7993
42.9121
43.0225
43.1305
43.2361
43.3393
43.4401
43.5385
43.6345
43.7281
43.8193
43.9081
43.9945
44.0785
44.1601
44.2393
44.3161
44.3905
44.4625
44.5321
44.5993
44.6641
44.7265
44.7865
44.8441
44.8993
44.9521
45.0025
45.0505
45.0961
45.1393
45.1801
45.2185
45.2545
45.288
45.3192
45.348
45.3744
45.3984
45.42
45.4392
45.456
45.4704
45.4824
45.492
45.4992
45.504
45.5064
45.5064
45.504
45.4992
45.492
45.4824
45.4704
45.456
45.4392
45.42
45.3984
45.3744
45.348
45.3192
45.288
45.2545
45.2185
45.1801
45.1393
45.0961
45.0505
45.0025
44.9521
44.8993
44.8441
44.7865
44.7265
44.6641
44.5993
44.5321
44.4625
44.3905
44.3161
44.2393
44.1601
44.0785
43.9945
43.9081
43.8193
43.7281
43.6345
43.5385
43.4401
43.3393
43.2361
43.1305
43.0225
42.9121
42.7993
42.6841
42.5665
42.6817
42.7993
42.9145
43.0273
43.1377
43.2457
43.3513
43.4545
43.5553
43.6537
43.7497
43.8433
43.9345
44.0233
44.1097
44.1937
44.2753
44.3545
44.4313
44.5057
44.5777
44.6473
44.7145
44.7793
44.8417
44.9017
44.9593
45.0145
45.0673
45.1177
45.1657
45.2113
45.2545
45.2953
45.3337
45.3697
45.4032
45.4344
45.4632
45.4896
45.5136
45.5352
45.5544
45.5712
45.5856
45.5976
45.6072
45.6144
45.6192
45.6216
45.6216
45.6192
45.6144
45.6072
45.5976
45.5856
45.5712
45.5544
45.5352
45.5136
45.4896
45.4632
45.4344
45.4032
45.3697
45.3337
45.2953
45.2545
45.2113
45.1657
45.1177
45.0673
45.0145
44.9593
44.9017
44.8417
44.7793
44.7145
44.6473
44.5777
44.5057
44.4313
44.3545
44.2753
44.1937
44.1097
44.0233
43.9345
43.8433
43.7497
43.6537
43.5553
43.4545
43.3513
43.2457
43.1377
43.0273
42.9145
42.7993
42.6817
42.7945
42.9121
43.0273
43.1401
43.2505
43.3585
43.4641
43.5673
43.6681
43.7665
43.8625
43.9561
44.0473
44.1361
44.2225
44.3065
44.3881
44.4673
44.5441
44.6185
44.6905
44.7601
44.8273
44.8921
44.9545
45.0145
45.0721
45.1273
45.1801
45.2305
45.2785
45.3241
45.3673
45.4081
45.4465
45.4824
45.516
45.5472
45.576
45.6024
45.6264
45.648
45.6672
45.684
45.6984
45.7104
45.72
45.7272
45.732
45.7344
45.7344
45.732
45.7272
45.72
45.7104
45.6984
45.684
45.6672
45.648
45.6264
45.6024
45.576
45.5472
45.516
45.4824
45.4465
45.4081
45.3673
45.3241
45.2785
45.2305
45.1801
45.1273
45.0721
45.0145
44.9545
44.8921
44.8273
44.7601
44.6905
44.6185
44.5441
44.4673
44.3881
44.3065
44.2225
44.1361
44.0473
43.9561
43.8625
43.7665
43.6681
43.5673
43.4641
43.3585
43.2505
43.1401
43.0273
42.9121
42.7945
42.9049
43.0225
43.1377
43.2505
43.3609
43.4689
43.5745
43.6777
43.7785
43.8769
43.9729
44.0665
44.1577
44.2465
44.3329
44.4169
44.4985
44.5777
44.6545
44.7289
44.8009
44.8705
44.9377
45.0025
45.0649
45.1249
45.1825
45.2377
45.2905
45.3409
45.3889
45.4345
45.4777
45.5185
45.5568
45.5928
45.6264
45.6576
45.6864
45.7128
45.7368
45.7584
45.7776
45.7944
45.8088
45.8208
45.8304
45.8376
45.8424
45.8448
45.8448
45.8424
45.8376
45.8304
45.8208
45.8088
45.7944
45.7776
45.7584
45.7368
45.7128
45.6864
45.6576
45.6264
45.5928
45.5568
45.5185
45.4777
45.4345
45.3889
45.3409
45.2905
45.2377
45.1825
45.1249
45.0649
45.0025
44.9377
44.8705
44.8009
44.7289
44.6545
44.5777
44.4985
44.4169
44.3329
44.2465
44.1577
44.0665
43.9729
43.8769
43.7785
43.6777
43.5745
43.4689
43.3609
43.2505
43.1377
43.0225
42.9049
43.0129
43.1305
43.2457
43.3585
43.4689
43.5769
43.6825
43.7857
43.8865
43.9849
44.0809
44.1745
44.2657
44.3545
44.4409
44.5249
44.6065
44.6857
44.7625
44.8369
44.9089
44.9785
45.0457
45.1105
45.1729
45.2329
45.2905
45.3457
45.3985
45.4489
45.4969
45.5425
45.5857
45.6265
45.6648
45.7008
45.7344
45.7656
45.7944
45.8208
45.8448
45.8664
45.8856
45.9024
45.9168
45.9288
45.9384
45.9456
45.9504
45.9528
45.9528
45.9504
45.9456
45.9384
45.9288
45.9168
45.9024
45.8856
45.8664
45.8448
45.8208
45.7944
45.7656
45.7344
45.7008
45.6648
45.6265
45.5857
45.5425
45.4969
45.4489
45.3985
45.3457
45.2905
45.2329
45.1729
45.1105
45.0457
44.9785
44.9089
44.8369
44.7625
44.6857
44.6065
44.5249
44.4409
44.3545
44.2657
44.1745
44.0809
43.9849
43.8865
43.7857
43.6825
43.5769
43.4689
43.3585
43.2457
43.1305
43.0129
43.1185
43.2361
43.3513
43.4641
43.5745
43.6825
43.7881
43.8913
43.9921
44.0905
44.1865
44.2801
44.3713
44.4601
44.5465
44.6305
44.7121
44.7913
44.8681
44.9425
45.0145
45.0841
45.1513
45.2161
45.2785
45.3385
45.3961
45.4513
45.5041
45.5545
45.6025
45.6481
45.6913
45.732
45.7704
45.8064
45.84
45.8712
45.9
45.9264
45.9504
45.972
45.9912
46.008
46.0224
46.0344
46.044
46.0512
46.056
46.0584
46.0584
46.056
46.0512
46.044
46.0344
46.0224
46.008
45.9912
45.972
45.9504
45.9264
45.9
45.8712
45.84
45.8064
45.7704
45.732
45.6913
45.6481
45.6025
45.5545
45.5041
45.4513
45.3961
45.3385
45.2785
45.2161
45.1513
45.0841
45.0145
44.9425
44.8681
44.7913
44.7121
44.6305
44.5465
44.4601
44.3713
44.2801
44.1865
44.0905
43.9921
43.8913
43.7881
43.6825
43.5745
43.4641
43.3513
43.2361
43.1185
43.2217
43.3393
43.4545
43.5673
43.6777
43.7857
43.8913
43.9945
44.0953
44.1937
44.2897
44.3833
44.4745
44.5633
44.6497
44.7337
44.8153
44.8945
44.9713
45.0457
45.1177
45.1873
45.2545
45.3193
45.3817
45.4417
45.4993
45.5545
45.6073
45.6577
45.7057
45.7513
45.7944
45.8352
45.8736
45.9096
45.9432
45.9744
46.0032
46.0296
46.0536
46.0752
46.0944
46.1112
46.1256
46.1376
46.1472
46.1544
46.1592
46.1616
46.1616
46.1592
46.1544
46.1472
46.1376
46.1256
46.1112
46.0944
46.0752
46.0536
46.0296
46.0032
45.9744
45.9432
45.9096
45.8736
45.8352
45.7944
45.7513
45.7057
45.6577
45.6073
45.5545
45.4993
45.4417
45.3817
45.3193
45.2545
45.1873
45.1177
45.0457
44.9713
44.8945
44.8153
44.7337
44.6497
44.5633
44.4745
44.3833
44.2897
44.1937
44.0953
43.9945
43.8913
43.7857
43.6777
43.5673
43.4545
43.3393
43.2217
43.3225
43.4401
43.5553
43.6681
43.7785
43.8865
43.9921
44.0953
44.1961
44.2945
44.3905
44.4841
44.5753
44.6641
44.7505
44.8345
44.9161
44.9953
45.0721
45.1465
45.2185
45.2881
45.3553
45.4201
45.4825
45.5425
45.6001
45.6553
45.7081
45.7585
45.8065
45.852
45.8952
45.936
45.9744
46.0104
46.044
46.0752
46.104
46.1304
46.1544
46.176
46.1952
46.212
46.2264
46.2384
46.248
46.2552
46.26
46.2624
46.2624
46.26
46.2552
46.248
46.2384
46.2264
46.212
46.1952
46.176
46.1544
46.1304
46.104
46.0752
46.044
46.0104
45.9744
45.936
45.8952
45.852
45.8065
45.7585
45.7081
45.6553
45.6001
45.5425
45.4825
45.4201
45.3553
45.2881
45.2185
45.1465
45.0721
44.9953
44.9161
44.8345
44.7505
44.6641
44.5753
44.4841
44.3905
44.2945
44.1961
44.0953
43.9921
43.8865
43.7785
43.6681
43.5553
43.4401
43.3225
43.4209
43.5385
43.6537
43.7665
43.8769
43.9849
44.0905
44.1937
44.2945
44.3929
44.4889
44.5825
44.6737
44.7625
44.8489
44.9329
45.0145
45.0937
45.1705
45.2449
45.3169
45.3865
45.4537
45.5185
45.5809
45.6409
45.6985
45.7537
45.8065
45.8569
45.9048
45.9504
45.9936
46.0344
46.0728
46.1088
46.1424
46.1736
46.2024
46.2288
46.2528
46.2744
46.2936
46.3104
46.3248
46.3368
46.3464
46.3536
46.3584
46.3608
46.3608
46.3584
46.3536
46.3464
46.3368
46.3248
46.3104
46.2936
46.2744
46.2528
46.2288
46.2024
46.1736
46.1424
46.1088
46.0728
46.0344
45.9936
45.9504
45.9048
45.8569
45.8065
45.7537
45.6985
45.6409
45.5809
45.5185
45.4537
45.3865
45.3169
45.2449
45.1705
45.0937
45.0145
44.9329
44.8489
44.7625
44.6737
44.5825
44.4889
44.3929
44.2945
44.1937
44.0905
43.9849
43.8769
43.7665
43.6537
43.5385
43.4209
43.5169
43.6345
43.7497
43.8625
43.9729
44.0809
44.1865
44.2897
44.3905
44.4889
44.5849
44.6785
44.7697
44.8585
44.9449
45.0289
45.1105
45.1897
45.2665
45.3409
45.4129
45.4825
45.5497
45.6145
45.6769
45.7369
45.7945
45.8497
45.9025
45.9528
46.0008
46.0464
46.0896
46.1304
46.1688
46.2048
46.2384
46.2696
46.2984
46.3248
46.3488
46.3704
46.3896
46.4064
46.4208
46.4328
46.4424
46.4496
46.4544
46.4568
46.4568
46.4544
46.4496
46.4424
46.4328
46.4208
46.4064
46.3896
46.3704
46.3488
46.3248
46.2984
46.2696
46.2384
46.2048
46.1688
46.1304
46.0896
46.0464
46.0008
45.9528
45.9025
45.8497
45.7945
45.7369
45.6769
45.6145
45.5497
45.4825
45.4129
45.3409
45.2665
45.1897
45.1105
45.0289
44.9449
44.8585
44.7697
44.6785
44.5849
44.4889
44.3905
44.2897
44.1865
44.0809
43.9729
43.8625
43.7497
43.6345
43.5169
43.6105
43.7281
43.8433
43.9561
44.0665
44.1745
44.2801
44.3833
44.4841
44.5825
44.6785
44.7721
44.8633
44.9521
45.0385
45.1225
45.2041
45.2833
45.3601
45.4345
45.5065
45.5761
45.6433
45.7081
45.7705
45.8305
45.8881
45.9432
45.996
46.0464
46.0944
46.14
46.1832
46.224
46.2624
46.2984
46.332
46.3632
46.392
46.4184
46.4424
46.464
46.4832
46.5
46.5144
46.5264
46.536
46.5432
46.548
46.5504
46.5504
46.548
46.5432
46.536
46.5264
46.5144
46.5
46.4832
46.464
46.4424
46.4184
46.392
46.3632
46.332
46.2984
46.2624
46.224
46.1832
46.14
46.0944
46.0464
45.996
45.9432
45.8881
45.8305
45.7705
45.7081
45.6433
45.5761
45.5065
45.4345
45.3601
45.2833
45.2041
45.1225
45.0385
44.9521
44.8633
44.7721
44.6785
44.5825
44.4841
44.3833
44.2801
44.1745
44.0665
43.9561
43.8433
43.7281
43.6105
43.7017
43.8193
43.9345
44.0473
44.1577
44.2657
44.3713
44.4745
44.5753
44.6737
44.7697
44.8633
44.9545
45.0433
45.1297
45.2137
45.2953
45.3745
45.4513
45.5257
45.5977
45.6673
45.7345
45.7993
45.8617
45.9217
45.9792
46.0344
46.0872
46.1376
46.1856
46.2312
46.2744
46.3152
46.3536
46.3896
46.4232
46.4544
46.4832
46.5096
46.5336
46.5552
46.5744
46.5912
46.6056
46.6176
46.6272
46.6344
46.6392
46.6416
46.6416
46.6392
46.6344
46.6272
46.6176
46.6056
46.5912
46.5744
46.5552
46.5336
46.5096
46.4832
46.4544
46.4232
46.3896
46.3536
46.3152
46.2744
46.2312
46.1856
46.1376
46.0872
46.0344
45.9792
45.9217
45.8617
45.7993
45.7345
45.6673
45.5977
45.5257
45.4513
45.3745
45.2953
45.2137
45.1297
45.0433
44.9545
44.8633
44.7697
44.6737
44.5753
44.4745
44.3713
44.2657
44.1577
44.0473
43.9345
43.8193
43.7017
43.7905
43.9081
44.0233
44.1361
44.2465
44.3545
44.4601
44.5633
44.6641
44.7625
44.8585
44.9521
45.0433
45.1321
45.2185
45.3025
45.3841
45.4633
45.5401
45.6145
45.6865
45.7561
45.8233
45.8881
45.9505
46.0104
46.068
46.1232
46.176
46.2264
46.2744
46.32
46.3632
46.404
46.4424
46.4784
46.512
46.5432
46.572
46.5984
46.6224
46.644
46.6632
46.68
46.6944
46.7064
46.716
46.7232
46.728
46.7304
46.7304
46.728
46.7232
46.716
46.7064
46.6944
46.68
46.6632
46.644
46.6224
46.5984
46.572
46.5432
46.512
46.4784
46.4424
46.404
46.3632
46.32
46.2744
46.2264
46.176
46.1232
46.068
46.0104
45.9505
45.8881
45.8233
45.7561
45.6865
45.6145
45.5401
45.4633
45.3841
45.3025
45.2185
45.1321
45.0433
44.9521
44.8585
44.7625
44.6641
44.5633
44.4601
44.3545
44.2465
44.1361
44.0233
43.9081
43.7905
43.8769
43.9945
44.1097
44.2225
44.3329
44.4409
44.5465
44.6497
44.7505
44.8489
44.9449
45.0385
45.1297
45.2185
45.3049
45.3889
45.4705
45.5497
45.6265
45.7009
45.7729
45.8425
45.9097
45.9745
46.0368
46.0968
46.1544
46.2096
46.2624
46.3128
46.3608
46.4064
46.4496
46.4904
46.5288
46.5648
46.5984
46.6296
46.6584
46.6848
46.7088
46.7304
46.7496
46.7664
46.7808
46.7928
46.8024
46.8096
46.8144
46.8168
46.8168
46.8144
46.8096
46.8024
46.7928
46.7808
46.7664
46.7496
46.7304
46.7088
46.6848
46.6584
46.6296
46.5984
46.5648
46.5288
46.4904
46.4496
46.4064
46.3608
46.3128
46.2624
46.2096
46.1544
46.0968
46.0368
45.9745
45.9097
45.8425
45.7729
45.7009
45.6265
45.5497
45.4705
45.3889
45.3049
45.2185
45.1297
45.0385
44.9449
44.8489
44.7505
44.6497
44.5465
44.4409
44.3329
44.2225
44.1097
43.9945
43.8769
43.9609
44.0785
44.1937
44.3065
44.4169
44.5249
44.6305
44.7337
44.8345
44.9329
45.0289
45.1225
45.2137
45.3025
45.3889
45.4729
45.5545
45.6337
45.7105
45.7849
45.8569
45.9265
45.9937
46.0584
46.1208
46.1808
46.2384
46.2936
46.3464
46.3968
46.4448
46.4904
46.5336
46.5744
46.6128
46.6488
46.6824
46.7136
46.7424
46.7688
46.7928
46.8144
46.8336
46.8504
46.8648
46.8768
46.8864
46.8936
46.8984
46.9008
46.9008
46.8984
46.8936
46.8864
46.8768
46.8648
46.8504
46.8336
46.8144
46.7928
46.7688
46.7424
46.7136
46.6824
46.6488
46.6128
46.5744
46.5336
46.4904
46.4448
46.3968
46.3464
46.2936
46.2384
46.1808
46.1208
46.0584
45.9937
45.9265
45.8569
45.7849
45.7105
45.6337
45.5545
45.4729
45.3889
45.3025
45.2137
45.1225
45.0289
44.9329
44.8345
44.7337
44.6305
44.5249
44.4169
44.3065
44.1937
44.0785
43.9609
44.0425
44.1601
44.2753
44.3881
44.4985
44.6065
44.7121
44.8153
44.9161
45.0145
45.1105
45.2041
45.2953
45.3841
45.4705
45.5545
45.6361
45.7153
45.7921
45.8665
45.9385
46.0081
46.0752
46.14
46.2024
46.2624
46.32
46.3752
46.428
46.4784
46.5264
46.572
46.6152
46.656
46.6944
46.7304
46.764
46.7952
46.824
46.8504
46.8744
46.896
46.9152
46.932
46.9463
46.9583
46.9679
46.9751
46.9799
46.9823
46.9823
46.9799
46.9751
46.9679
46.9583
46.9463
46.932
46.9152
46.896
46.8744
46.8504
46.824
46.7952
46.764
46.7304
46.6944
46.656
46.6152
46.572
46.5264
46.4784
46.428
46.3752
46.32
46.2624
46.2024
46.14
46.0752
46.0081
45.9385
45.8665
45.7921
45.7153
45.6361
45.5545
45.4705
45.3841
45.2953
45.2041
45.1105
45.0145
44.9161
44.8153
44.7121
44.6065
44.4985
44.3881
44.2753
44.1601
44.0425
44.1217
44.2393
44.3545
44.4673
44.5777
44.6857
44.7913
44.8945
44.9953
45.0937
45.1897
45.2833
45.3745
45.4633
45.5497
45.6337
45.7153
45.7945
45.8713
45.9457
46.0177
46.0872
46.1544
46.2192
46.2816
46.3416
46.3992
46.4544
46.5072
46.5576
46.6056
46.6512
46.6944
46.7352
46.7736
46.8096
46.8432
46.8744
46.9032
46.9296
46.9536
46.9751
46.9943
47.0111
47.0255
47.0375
47.0471
47.0543
47.0591
47.0615
47.0615
47.0591
47.0543
47.0471
47.0375
47.0255
47.0111
46.9943
46.9751
46.9536
46.9296
46.9032
46.8744
46.8432
46.8096
46.7736
46.7352
46.6944
46.6512
46.6056
46.5576
46.5072
46.4544
46.3992
46.3416
46.2816
46.2192
46.1544
46.0872
46.0177
45.9457
45.8713
45.7945
45.7153
45.6337
45.5497
45.4633
45.3745
45.2833
45.1897
45.0937
44.9953
44.8945
44.7913
44.6857
44.5777
44.4673
44.3545
44.2393
44.1217
44.1985
44.3161
44.4313
44.5441
44.6545
44.7625
44.8681
44.9713
45.0721
45.1705
45.2665
45.3601
45.4513
45.5401
45.6265
45.7105
45.7921
45.8713
45.9481
46.0225
46.0944
46.164
46.2312
46.296
46.3584
46.4184
46.476
46.5312
46.584
46.6344
46.6824
46.728
46.7712
46.812
46.8504
46.8864
46.92
46.9512
46.9799
47.0063
47.0303
47.0519
47.0711
47.0879
47.1023
47.1143
47.1239
47.1311
47.1359
47.1383
47.1383
47.1359
47.1311
47.1239
47.1143
47.1023
47.0879
47.0711
47.0519
47.0303
47.0063
46.9799
46.9512
46.92
46.8864
46.8504
46.812
46.7712
46.728
46.6824
46.6344
46.584
46.5312
46.476
46.4184
46.3584
46.296
46.2312
46.164
46.0944
46.0225
45.9481
45.8713
45.7921
45.7105
45.6265
45.5401
45.4513
45.3601
45.2665
45.1705
45.0721
44.9713
44.8681
44.7625
44.6545
44.5441
44.4313
44.3161
44.1985
44.2729
44.3905
44.5057
44.6185
44.7289
44.8369
44.9425
45.0457
45.1465
45.2449
45.3409
45.4345
45.5257
45.6145
45.7009
45.7849
45.8665
45.9457
46.0225
46.0968
46.1688
46.2384
46.3056
46.3704
46.4328
46.4928
46.5504
46.6056
46.6584
46.7088
46.7568
46.8024
46.8456
46.8864
46.9248
46.9608
46.9943
47.0255
47.0543
47.0807
47.1047
47.1263
47.1455
47.1623
47.1767
47.1887
47.1983
47.2055
47.2103
47.2127
47.2127
47.2103
47.2055
47.1983
47.1887
47.1767
47.1623
47.1455
47.1263
47.1047
47.0807
47.0543
47.0255
46.9943
46.9608
46.9248
46.8864
46.8456
46.8024
46.7568
46.7088
46.6584
46.6056
46.5504
46.4928
46.4328
46.3704
46.3056
46.2384
46.1688
46.0968
46.0225
45.9457
45.8665
45.7849
45.7009
45.6145
45.5257
45.4345
45.3409
45.2449
45.1465
45.0457
44.9425
44.8369
44.7289
44.6185
44.5057
44.3905
44.2729
44.3449
44.4625
44.5777
44.6905
44.8009
44.9089
45.0145
45.1177
45.2185
45.3169
45.4129
45.5065
45.5977
45.6865
45.7729
45.8569
45.9385
46.0177
46.0944
46.1688
46.2408
46.3104
46.3776
46.4424
46.5048
46.5648
46.6224
46.6776
46.7304
46.7808
46.8288
46.8744
46.9176
46.9584
46.9967
47.0327
47.0663
47.0975
47.1263
47.1527
47.1767
47.1983
47.2175
47.2343
47.2487
47.2607
47.2703
47.2775
47.2823
47.2847
47.2847
47.2823
47.2775
47.2703
47.2607
47.2487
47.2343
47.2175
47.1983
47.1767
47.1527
47.1263
47.0975
47.0663
47.0327
46.9967
46.9584
46.9176
46.8744
46.8288
46.7808
46.7304
46.6776
46.6224
46.5648
46.5048
46.4424
46.3776
46.3104
46.2408
46.1688
46.0944
46.0177
45.9385
45.8569
45.7729
45.6865
45.5977
45.5065
45.4129
45.3169
45.2185
45.1177
45.0145
44.9089
44.8009
44.6905
44.5777
44.4625
44.3449
44.4145
44.5321
44.6473
44.7601
44.8705
44.9785
45.0841
45.1873
45.2881
45.3865
45.4825
45.5761
45.6673
45.7561
45.8425
45.9265
46.0081
46.0872
46.164
46.2384
46.3104
46.38
46.4472
46.512
46.5744
46.6344
46.692
46.7472
46.8
46.8504
46.8984
46.944
46.9872
47.0279
47.0663
47.1023
47.1359
47.1671
47.1959
47.2223
47.2463
47.2679
47.2871
47.3039
47.3183
47.3303
47.3399
47.3471
47.3519
47.3543
47.3543
47.3519
47.3471
47.3399
47.3303
47.3183
47.3039
47.2871
47.2679
47.2463
47.2223
47.1959
47.1671
47.1359
47.1023
47.0663
47.0279
46.9872
46.944
46.8984
46.8504
46.8
46.7472
46.692
46.6344
46.5744
46.512
46.4472
46.38
46.3104
46.2384
46.164
46.0872
46.0081
45.9265
45.8425
45.7561
45.6673
45.5761
45.4825
45.3865
45.2881
45.1873
45.0841
44.9785
44.8705
44.7601
44.6473
44.5321
44.4145
44.4817
44.5993
44.7145
44.8273
44.9377
45.0457
45.1513
45.2545
45.3553
45.4537
45.5497
45.6433
45.7345
45.8233
45.9097
45.9937
46.0752
46.1544
46.2312
46.3056
46.3776
46.4472
46.5144
46.5792
46.6416
46.7016
46.7592
46.8144
46.8672
46.9176
46.9656
47.0111
47.0543
47.0951
47.1335
47.1695
47.2031
47.2343
47.2631
47.2895
47.3135
47.3351
47.3543
47.3711
47.3855
47.3975
47.4071
47.4143
47.4191
47.4215
47.4215
47.4191
47.4143
47.4071
47.3975
47.3855
47.3711
47.3543
47.3351
47.3135
47.2895
47.2631
47.2343
47.2031
47.1695
47.1335
47.0951
47.0543
47.0111
46.9656
46.9176
46.8672
46.8144
46.7592
46.7016
46.6416
46.5792
46.5144
46.4472
46.3776
46.3056
46.2312
46.1544
46.0752
45.9937
45.9097
45.8233
45.7345
45.6433
45.5497
45.4537
45.3553
45.2545
45.1513
45.0457
44.9377
44.8273
44.7145
44.5993
44.4817
44.5465
44.6641
44.7793
44.8921
45.0025
45.1105
45.2161
45.3193
45.4201
45.5185
45.6145
45.7081
45.7993
45.8881
45.9745
46.0584
46.14
46.2192
46.296
46.3704
46.4424
46.512
46.5792
46.644
46.7064
46.7664
46.824
46.8792
46.932
46.9824
47.0303
47.0759
47.1191
47.1599
47.1983
47.2343
47.2679
47.2991
47.3279
47.3543
47.3783
47.3999
47.4191
47.4359
47.4503
47.4623
47.4719
47.4791
47.4839
47.4863
47.4863
47.4839
47.4791
47.4719
47.4623
47.4503
47.4359
47.4191
47.3999
47.3783
47.3543
47.3279
47.2991
47.2679
47.2343
47.1983
47.1599
47.1191
47.0759
47.0303
46.9824
46.932
46.8792
46.824
46.7664
46.7064
46.644
46.5792
46.512
46.4424
46.3704
46.296
46.2192
46.14
46.0584
45.9745
45.8881
45.7993
45.7081
45.6145
45.5185
45.4201
45.3193
45.2161
45.1105
45.0025
44.8921
44.7793
44.6641
44.5465
44.6089
44.7265
44.8417
44.9545
45.0649
45.1729
45.2785
45.3817
45.4825
45.5809
45.6769
45.7705
45.8617
45.9505
46.0368
46.1208
46.2024
46.2816
46.3584
46.4328
46.5048
46.5744
46.6416
46.7064
46.7688
46.8288
46.8864
46.9416
46.9944
47.0447
47.0927
47.1383
47.1815
47.2223
47.2607
47.2967
47.3303
47.3615
47.3903
47.4167
47.4407
47.4623
47.4815
47.4983
47.5127
47.5247
47.5343
47.5415
47.5463
47.5487
47.5487
47.5463
47.5415
47.5343
47.5247
47.5127
47.4983
47.4815
47.4623
47.4407
47.4167
47.3903
47.3615
47.3303
47.2967
47.2607
47.2223
47.1815
47.1383
47.0927
47.0447
46.9944
46.9416
46.8864
46.8288
46.7688
46.7064
46.6416
46.5744
46.5048
46.4328
46.3584
46.2816
46.2024
46.1208
46.0368
45.9505
45.8617
45.7705
45.6769
45.5809
45.4825
45.3817
45.2785
45.1729
45.0649
44.9545
44.8417
44.7265
44.6089
44.6689
44.7865
44.9017
45.0145
45.1249
45.2329
45.3385
45.4417
45.5425
45.6409
45.7369
45.8305
45.9217
46.0104
46.0968
46.1808
46.2624
46.3416
46.4184
46.4928
46.5648
46.6344
46.7016
46.7664
46.8288
46.8888
46.9464
47.0016
47.0543
47.1047
47.1527
47.1983
47.2415
47.2823
47.3207
47.3567
47.3903
47.4215
47.4503
47.4767
47.5007
47.5223
47.5415
47.5583
47.5727
47.5847
47.5943
47.6015
47.6063
47.6087
47.6087
47.6063
47.6015
47.5943
47.5847
47.5727
47.5583
47.5415
47.5223
47.5007
47.4767
47.4503
47.4215
47.3903
47.3567
47.3207
47.2823
47.2415
47.1983
47.1527
47.1047
47.0543
47.0016
46.9464
46.8888
46.8288
46.7664
46.7016
46.6344
46.5648
46.4928
46.4184
46.3416
46.2624
46.1808
46.0968
46.0104
45.9217
45.8305
45.7369
45.6409
45.5425
45.4417
45.3385
45.2329
45.1249
45.0145
44.9017
44.7865
44.6689
44.7265
44.8441
44.9593
45.0721
45.1825
45.2905
45.3961
45.4993
45.6001
45.6985
45.7945
45.8881
45.9792
46.068
46.1544
46.2384
46.32
46.3992
46.476
46.5504
46.6224
46.692
46.7592
46.824
46.8864
46.9464
47.004
47.0591
47.1119
47.1623
47.2103
47.2559
47.2991
47.3399
47.3783
47.4143
47.4479
47.4791
47.5079
47.5343
47.5583
47.5799
47.5991
47.6159
47.6303
47.6423
47.6519
47.6591
47.6639
47.6663
47.6663
47.6639
47.6591
47.6519
47.6423
47.6303
47.6159
47.5991
47.5799
47.5583
47.5343
47.5079
47.4791
47.4479
47.4143
47.3783
47.3399
47.2991
47.2559
47.2103
47.1623
47.1119
47.0591
47.004
46.9464
46.8864
46.824
46.7592
46.692
46.6224
46.5504
46.476
46.3992
46.32
46.2384
46.1544
46.068
45.9792
45.8881
45.7945
45.6985
45.6001
45.4993
45.3961
45.2905
45.1825
45.0721
44.9593
44.8441
44.7265
44.7817
44.8993
45.0145
45.1273
45.2377
45.3457
45.4513
45.5545
45.6553
45.7537
45.8497
45.9432
46.0344
46.1232
46.2096
46.2936
46.3752
46.4544
46.5312
46.6056
46.6776
46.7472
46.8144
46.8792
46.9416
47.0016
47.0591
47.1143
47.1671
47.2175
47.2655
47.3111
47.3543
47.3951
47.4335
47.4695
47.5031
47.5343
47.5631
47.5895
47.6135
47.6351
47.6543
47.6711
47.6855
47.6975
47.7071
47.7143
47.7191
47.7215
47.7215
47.7191
47.7143
47.7071
47.6975
47.6855
47.6711
47.6543
47.6351
47.6135
47.5895
47.5631
47.5343
47.5031
47.4695
47.4335
47.3951
47.3543
47.3111
47.2655
47.2175
47.1671
47.1143
47.0591
47.0016
46.9416
46.8792
46.8144
46.7472
46.6776
46.6056
46.5312
46.4544
46.3752
46.2936
46.2096
46.1232
46.0344
45.9432
45.8497
45.7537
45.6553
45.5545
45.4513
45.3457
45.2377
45.1273
45.0145
44.8993
44.7817
44.8345
44.9521
45.0673
45.1801
45.2905
45.3985
45.5041
45.6073
45.7081
45.8065
45.9025
45.996
46.0872
46.176
46.2624
46.3464
46.428
46.5072
46.584
46.6584
46.7304
46.8
46.8672
46.932
46.9944
47.0543
47.1119
47.1671
47.2199
47.2703
47.3183
47.3639
47.4071
47.4479
47.4863
47.5223
47.5559
47.5871
47.6159
47.6423
47.6663
47.6879
47.7071
47.7239
47.7383
47.7503
47.7599
47.7671
47.7719
47.7743
47.7743
47.7719
47.7671
47.7599
47.7503
47.7383
47.7239
47.7071
47.6879
47.6663
47.6423
47.6159
47.5871
47.5559
47.5223
47.4863
47.4479
47.4071
47.3639
47.3183
47.2703
47.2199
47.1671
47.1119
47.0543
46.9944
46.932
46.8672
46.8
46.7304
46.6584
46.584
46.5072
46.428
46.3464
46.2624
46.176
46.0872
45.996
45.9025
45.8065
45.7081
45.6073
45.5041
45.3985
45.2905
45.1801
45.0673
44.9521
44.8345
44.8849
45.0025
45.1177
45.2305
45.3409
45.4489
45.5545
45.6577
45.7585
45.8569
45.9528
46.0464
46.1376
46.2264
46.3128
46.3968
46.4784
46.5576
46.6344
46.7088
46.7808
46.8504
46.9176
46.9824
47.0447
47.1047
47.1623
47.2175
47.2703
47.3207
47.3687
47.4143
47.4575
47.4983
47.5367
47.5727
47.6063
47.6375
47.6663
47.6927
47.7167
47.7383
47.7575
47.7743
47.7887
47.8007
47.8103
47.8175
47.8223
47.8247
47.8247
47.8223
47.8175
47.8103
47.8007
47.7887
47.7743
47.7575
47.7383
47.7167
47.6927
47.6663
47.6375
47.6063
47.5727
47.5367
47.4983
47.4575
47.4143
47.3687
47.3207
47.2703
47.2175
47.1623
47.1047
47.0447
46.9824
46.9176
46.8504
46.7808
46.7088
46.6344
46.5576
46.4784
46.3968
46.3128
46.2264
46.1376
46.0464
45.9528
45.8569
45.7585
45.6577
45.5545
45.4489
45.3409
45.2305
45.1177
45.0025
44.8849
44.9329
45.0505
45.1657
45.2785
45.3889
45.4969
45.6025
45.7057
45.8065
45.9048
46.0008
46.0944
46.1856
46.2744
46.3608
46.4448
46.5264
46.6056
46.6824
46.7568
46.8288
46.8984
46.9656
47.0303
47.0927
47.1527
47.2103
47.2655
47.3183
47.3687
47.4167
47.4623
47.5055
47.5463
47.5847
47.6207
47.6543
47.6855
47.7143
47.7407
47.7647
47.7863
47.8055
47.8223
47.8367
47.8487
47.8583
47.8655
47.8703
47.8727
47.8727
47.8703
47.8655
47.8583
47.8487
47.8367
47.8223
47.8055
47.7863
47.7647
47.7407
47.7143
47.6855
47.6543
47.6207
47.5847
47.5463
47.5055
47.4623
47.4167
47.3687
47.3183
47.2655
47.2103
47.1527
47.0927
47.0303
46.9656
46.8984
46.8288
46.7568
46.6824
46.6056
46.5264
46.4448
46.3608
46.2744
46.1856
46.0944
46.0008
45.9048
45.8065
45.7057
45.6025
45.4969
45.3889
45.2785
45.1657
45.0505
44.9329
44.9785
45.0961
45.2113
45.3241
45.4345
45.5425
45.6481
45.7513
45.852
45.9504
46.0464
46.14
46.2312
46.32
46.4064
46.4904
46.572
46.6512
46.728
46.8024
46.8744
46.944
47.0111
47.0759
47.1383
47.1983
47.2559
47.3111
47.3639
47.4143
47.4623
47.5079
47.5511
47.5919
47.6303
47.6663
47.6999
47.7311
47.7599
47.7863
47.8103
47.8319
47.8511
47.8679
47.8823
47.8943
47.9039
47.9111
47.9159
47.9183
47.9183
47.9159
47.9111
47.9039
47.8943
47.8823
47.8679
47.8511
47.8319
47.8103
47.7863
47.7599
47.7311
47.6999
47.6663
47.6303
47.5919
47.5511
47.5079
47.4623
47.4143
47.3639
47.3111
47.2559
47.1983
47.1383
47.0759
47.0111
46.944
46.8744
46.8024
46.728
46.6512
46.572
46.4904
46.4064
46.32
46.2312
46.14
46.0464
45.9504
45.852
45.7513
45.6481
45.5425
45.4345
45.3241
45.2113
45.0961
44.9785
45.0217
45.1393
45.2545
45.3673
45.4777
45.5857
45.6913
45.7944
45.8952
45.9936
46.0896
46.1832
46.2744
46.3632
46.4496
46.5336
46.6152
46.6944
46.7712
46.8456
46.9176
46.9872
47.0543
47.1191
47.1815
47.2415
47.2991
47.3543
47.4071
47.4575
47.5055
47.5511
47.5943
47.6351
47.6735
47.7095
47.7431
47.7743
47.8031
47.8295
47.8535
47.8751
47.8943
47.9111
47.9255
47.9375
47.9471
47.9543
47.9591
47.9615
47.9615
47.9591
47.9543
47.9471
47.9375
47.9255
47.9111
47.8943
47.8751
47.8535
47.8295
47.8031
47.7743
47.7431
47.7095
47.6735
47.6351
47.5943
47.5511
47.5055
47.4575
47.4071
47.3543
47.2991
47.2415
47.1815
47.1191
47.0543
46.9872
46.9176
46.8456
46.7712
46.6944
46.6152
46.5336
46.4496
46.3632
46.2744
46.1832
46.0896
45.9936
45.8952
45.7944
45.6913
45.5857
45.4777
45.3673
45.2545
45.1393
45.0217
45.0625
45.1801
45.2953
45.4081
45.5185
45.6265
45.732
45.8352
45.936
46.0344
46.1304
46.224
46.3152
46.404
46.4904
46.5744
46.656
46.7352
46.812
46.8864
46.9584
47.0279
47.0951
47.1599
47.2223
47.2823
47.3399
47.3951
47.4479
47.4983
47.5463
47.5919
47.6351
47.6759
47.7143
47.7503
47.7839
47.8151
47.8439
47.8703
47.8943
47.9159
47.9351
47.9519
47.9663
47.9783
47.9879
47.9951
47.9999
48.0023
48.0023
47.9999
47.9951
47.9879
47.9783
47.9663
47.9519
47.9351
47.9159
47.8943
47.8703
47.8439
47.8151
47.7839
47.7503
47.7143
47.6759
47.6351
47.5919
47.5463
47.4983
47.4479
47.3951
47.3399
47.2823
47.2223
47.1599
47.0951
47.0279
46.9584
46.8864
46.812
46.7352
46.656
46.5744
46.4904
46.404
46.3152
46.224
46.1304
46.0344
45.936
45.8352
45.732
45.6265
45.5185
45.4081
45.2953
45.1801
45.0625
45.1009
45.2185
45.3337
45.4465
45.5568
45.6648
45.7704
45.8736
45.9744
46.0728
46.1688
46.2624
46.3536
46.4424
46.5288
46.6128
46.6944
46.7736
46.8504
46.9248
46.9967
47.0663
47.1335
47.1983
47.2607
47.3207
47.3783
47.4335
47.4863
47.5367
47.5847
47.6303
47.6735
47.7143
47.7527
47.7887
47.8223
47.8535
47.8823
47.9087
47.9327
47.9543
47.9735
47.9903
48.0047
48.0167
48.0263
48.0335
48.0383
48.0407
48.0407
48.0383
48.0335
48.0263
48.0167
48.0047
47.9903
47.9735
47.9543
47.9327
47.9087
47.8823
47.8535
47.8223
47.7887
47.7527
47.7143
47.6735
47.6303
47.5847
47.5367
47.4863
47.4335
47.3783
47.3207
47.2607
47.1983
47.1335
47.0663
46.9967
46.9248
46.8504
46.7736
46.6944
46.6128
46.5288
46.4424
46.3536
46.2624
46.1688
46.0728
45.9744
45.8736
45.7704
45.6648
45.5568
45.4465
45.3337
45.2185
45.1009
45.1369
45.2545
45.3697
45.4824
45.5928
45.7008
45.8064
45.9096
46.0104
46.1088
46.2048
46.2984
46.3896
46.4784
46.5648
46.6488
46.7304
46.8096
46.8864
46.9608
47.0327
47.1023
47.1695
47.2343
47.2967
47.3567
47.4143
47.4695
47.5223
47.5727
47.6207
47.6663
47.7095
47.7503
47.7887
47.8247
47.8583
47.8895
47.9183
47.9447
47.9687
47.9903
48.0095
48.0263
48.0407
48.0527
48.0623
48.0695
48.0743
48.0767
48.0767
48.0743
48.0695
48.0623
48.0527
48.0407
48.0263
48.0095
47.9903
47.9687
47.9447
47.9183
47.8895
47.8583
47.8247
47.7887
47.7503
47.7095
47.6663
47.6207
47.5727
47.5223
47.4695
47.4143
47.3567
47.2967
47.2343
47.1695
47.1023
47.0327
46.9608
46.8864
46.8096
46.7304
46.6488
46.5648
46.4784
46.3896
46.2984
46.2048
46.1088
46.0104
45.9096
45.8064
45.7008
45.5928
45.4824
45.3697
45.2545
45.1369
45.1704
45.288
45.4032
45.516
45.6264
45.7344
45.84
45.9432
46.044
46.1424
46.2384
46.332
46.4232
46.512
46.5984
46.6824
46.764
46.8432
46.92
46.9943
47.0663
47.1359
47.2031
47.2679
47.3303
47.3903
47.4479
47.5031
47.5559
47.6063
47.6543
47.6999
47.7431
47.7839
47.8223
47.8583
47.8919
47.9231
47.9519
47.9783
48.0023
48.0239
48.0431
48.0599
48.0743
48.0863
48.0959
48.1031
48.1079
48.1103
48.1103
48.1079
48.1031
48.0959
48.0863
48.0743
48.0599
48.0431
48.0239
48.0023
47.9783
47.9519
47.9231
47.8919
47.8583
47.8223
47.7839
47.7431
47.6999
47.6543
47.6063
47.5559
47.5031
47.4479