/*--------------------------------*- C++ -*----------------------------------*\
| =========                 |                                                 |
| \\      /  F ield         | OpenFOAM: The Open Source CFD Toolbox           |
|  \\    /   O peration     | Version:  v1812                                 |
|   \\  /    A nd           | Web:      www.OpenFOAM.com                      |
|    \\/     M anipulation  |                                                 |
\*---------------------------------------------------------------------------*/
FoamFile
{
    version     2.0;
    format      ascii;
    class       volScalarField;
    location    "6";
    object      pDiff;
}
// * * * * * * * * * * * * * * * * * * * * * * * * * * * * * * * * * * * * * //

dimensions      [0 0 0 0 0 0 0];


internalField   nonuniform List<scalar> 
10000
(
0.00393522
0.00393523
0.00393524
0.00393526
0.00393529
0.00393533
0.00393537
0.00393541
0.00393547
0.00393553
0.00393559
0.00393566
0.00393574
0.00393582
0.00393591
0.003936
0.00393609
0.00393619
0.00393629
0.00393639
0.0039365
0.00393661
0.00393672
0.00393683
0.00393694
0.00393705
0.00393717
0.00393728
0.00393739
0.0039375
0.0039376
0.00393771
0.00393781
0.00393791
0.00393801
0.0039381
0.00393819
0.00393827
0.00393835
0.00393842
0.00393849
0.00393855
0.00393861
0.00393866
0.0039387
0.00393873
0.00393876
0.00393878
0.0039388
0.00393881
0.00393881
0.0039388
0.00393879
0.00393876
0.00393874
0.0039387
0.00393866
0.00393861
0.00393856
0.0039385
0.00393843
0.00393836
0.00393828
0.0039382
0.00393811
0.00393802
0.00393792
0.00393782
0.00393772
0.00393762
0.00393751
0.0039374
0.00393729
0.00393718
0.00393706
0.00393695
0.00393684
0.00393673
0.00393662
0.00393651
0.0039364
0.00393629
0.00393619
0.00393609
0.003936
0.00393591
0.00393582
0.00393574
0.00393566
0.00393559
0.00393553
0.00393547
0.00393541
0.00393537
0.00393533
0.00393529
0.00393526
0.00393524
0.00393523
0.00393522
0.00393523
0.00393524
0.00393525
0.00393527
0.0039353
0.00393533
0.00393537
0.00393542
0.00393547
0.00393553
0.0039356
0.00393567
0.00393575
0.00393583
0.00393591
0.003936
0.0039361
0.00393619
0.0039363
0.0039364
0.00393651
0.00393661
0.00393673
0.00393684
0.00393695
0.00393706
0.00393717
0.00393729
0.0039374
0.00393751
0.00393761
0.00393772
0.00393782
0.00393792
0.00393802
0.00393811
0.0039382
0.00393828
0.00393836
0.00393843
0.0039385
0.00393856
0.00393862
0.00393867
0.00393871
0.00393874
0.00393877
0.00393879
0.00393881
0.00393882
0.00393882
0.00393881
0.0039388
0.00393878
0.00393875
0.00393871
0.00393867
0.00393862
0.00393857
0.00393851
0.00393844
0.00393837
0.00393829
0.00393821
0.00393812
0.00393803
0.00393793
0.00393783
0.00393773
0.00393763
0.00393752
0.00393741
0.0039373
0.00393719
0.00393707
0.00393696
0.00393685
0.00393673
0.00393662
0.00393651
0.00393641
0.0039363
0.0039362
0.0039361
0.00393601
0.00393592
0.00393583
0.00393575
0.00393567
0.0039356
0.00393554
0.00393548
0.00393542
0.00393537
0.00393533
0.0039353
0.00393527
0.00393525
0.00393524
0.00393523
0.00393524
0.00393525
0.00393526
0.00393528
0.00393531
0.00393535
0.00393539
0.00393544
0.00393549
0.00393555
0.00393561
0.00393568
0.00393576
0.00393584
0.00393593
0.00393602
0.00393611
0.00393621
0.00393631
0.00393642
0.00393652
0.00393663
0.00393674
0.00393685
0.00393697
0.00393708
0.00393719
0.00393731
0.00393742
0.00393753
0.00393763
0.00393774
0.00393784
0.00393794
0.00393804
0.00393813
0.00393822
0.0039383
0.00393838
0.00393845
0.00393852
0.00393858
0.00393864
0.00393869
0.00393873
0.00393877
0.00393879
0.00393882
0.00393883
0.00393884
0.00393884
0.00393883
0.00393882
0.0039388
0.00393877
0.00393873
0.00393869
0.00393864
0.00393859
0.00393853
0.00393846
0.00393839
0.00393831
0.00393823
0.00393814
0.00393805
0.00393795
0.00393785
0.00393775
0.00393764
0.00393754
0.00393743
0.00393732
0.0039372
0.00393709
0.00393698
0.00393686
0.00393675
0.00393664
0.00393653
0.00393642
0.00393632
0.00393622
0.00393612
0.00393602
0.00393593
0.00393585
0.00393576
0.00393569
0.00393562
0.00393555
0.00393549
0.00393544
0.00393539
0.00393535
0.00393531
0.00393529
0.00393526
0.00393525
0.00393524
0.00393526
0.00393527
0.00393528
0.00393531
0.00393533
0.00393537
0.00393541
0.00393546
0.00393551
0.00393557
0.00393564
0.00393571
0.00393578
0.00393587
0.00393595
0.00393604
0.00393614
0.00393624
0.00393634
0.00393644
0.00393655
0.00393666
0.00393677
0.00393688
0.00393699
0.00393711
0.00393722
0.00393733
0.00393744
0.00393755
0.00393766
0.00393777
0.00393787
0.00393797
0.00393807
0.00393816
0.00393825
0.00393833
0.00393841
0.00393849
0.00393855
0.00393862
0.00393867
0.00393872
0.00393876
0.0039388
0.00393883
0.00393885
0.00393886
0.00393887
0.00393887
0.00393886
0.00393885
0.00393883
0.0039388
0.00393877
0.00393872
0.00393868
0.00393862
0.00393856
0.00393849
0.00393842
0.00393834
0.00393826
0.00393817
0.00393808
0.00393798
0.00393788
0.00393778
0.00393767
0.00393757
0.00393746
0.00393734
0.00393723
0.00393712
0.003937
0.00393689
0.00393678
0.00393667
0.00393656
0.00393645
0.00393634
0.00393624
0.00393614
0.00393605
0.00393596
0.00393587
0.00393579
0.00393571
0.00393564
0.00393557
0.00393551
0.00393546
0.00393541
0.00393537
0.00393533
0.00393531
0.00393529
0.00393527
0.00393526
0.00393529
0.0039353
0.00393531
0.00393533
0.00393536
0.0039354
0.00393544
0.00393548
0.00393554
0.0039356
0.00393567
0.00393574
0.00393581
0.0039359
0.00393598
0.00393607
0.00393617
0.00393627
0.00393637
0.00393647
0.00393658
0.00393669
0.0039368
0.00393692
0.00393703
0.00393714
0.00393726
0.00393737
0.00393748
0.00393759
0.0039377
0.00393781
0.00393791
0.00393801
0.00393811
0.0039382
0.00393829
0.00393837
0.00393845
0.00393853
0.0039386
0.00393866
0.00393871
0.00393876
0.00393881
0.00393884
0.00393887
0.00393889
0.00393891
0.00393891
0.00393891
0.00393891
0.00393889
0.00393887
0.00393884
0.00393881
0.00393877
0.00393872
0.00393866
0.0039386
0.00393853
0.00393846
0.00393838
0.0039383
0.00393821
0.00393812
0.00393802
0.00393792
0.00393782
0.00393771
0.0039376
0.00393749
0.00393738
0.00393727
0.00393715
0.00393704
0.00393693
0.00393681
0.0039367
0.00393659
0.00393648
0.00393638
0.00393627
0.00393617
0.00393608
0.00393599
0.0039359
0.00393582
0.00393574
0.00393567
0.0039356
0.00393554
0.00393549
0.00393544
0.0039354
0.00393536
0.00393533
0.00393531
0.0039353
0.00393529
0.00393533
0.00393533
0.00393535
0.00393537
0.0039354
0.00393543
0.00393547
0.00393552
0.00393557
0.00393563
0.0039357
0.00393577
0.00393585
0.00393593
0.00393602
0.00393611
0.00393621
0.00393631
0.00393641
0.00393652
0.00393662
0.00393673
0.00393685
0.00393696
0.00393707
0.00393719
0.0039373
0.00393742
0.00393753
0.00393764
0.00393775
0.00393786
0.00393796
0.00393806
0.00393816
0.00393825
0.00393834
0.00393843
0.00393851
0.00393858
0.00393865
0.00393871
0.00393877
0.00393882
0.00393886
0.00393889
0.00393892
0.00393895
0.00393896
0.00393897
0.00393897
0.00393896
0.00393895
0.00393893
0.0039389
0.00393886
0.00393882
0.00393877
0.00393872
0.00393865
0.00393859
0.00393851
0.00393843
0.00393835
0.00393826
0.00393817
0.00393807
0.00393797
0.00393787
0.00393776
0.00393765
0.00393754
0.00393743
0.00393731
0.0039372
0.00393708
0.00393697
0.00393686
0.00393674
0.00393663
0.00393652
0.00393642
0.00393631
0.00393621
0.00393612
0.00393602
0.00393594
0.00393585
0.00393578
0.0039357
0.00393564
0.00393558
0.00393552
0.00393547
0.00393543
0.0039354
0.00393537
0.00393535
0.00393533
0.00393533
0.00393537
0.00393537
0.00393539
0.00393541
0.00393544
0.00393547
0.00393551
0.00393556
0.00393562
0.00393568
0.00393574
0.00393582
0.00393589
0.00393598
0.00393607
0.00393616
0.00393625
0.00393635
0.00393646
0.00393656
0.00393667
0.00393678
0.0039369
0.00393701
0.00393713
0.00393724
0.00393736
0.00393747
0.00393758
0.0039377
0.00393781
0.00393791
0.00393802
0.00393812
0.00393822
0.00393831
0.0039384
0.00393849
0.00393857
0.00393864
0.00393871
0.00393877
0.00393883
0.00393888
0.00393892
0.00393896
0.00393899
0.00393901
0.00393902
0.00393903
0.00393903
0.00393903
0.00393901
0.00393899
0.00393896
0.00393893
0.00393888
0.00393883
0.00393878
0.00393872
0.00393865
0.00393858
0.0039385
0.00393841
0.00393832
0.00393823
0.00393813
0.00393803
0.00393792
0.00393782
0.00393771
0.0039376
0.00393748
0.00393737
0.00393725
0.00393714
0.00393702
0.00393691
0.00393679
0.00393668
0.00393657
0.00393647
0.00393636
0.00393626
0.00393616
0.00393607
0.00393598
0.0039359
0.00393582
0.00393575
0.00393568
0.00393562
0.00393556
0.00393552
0.00393547
0.00393544
0.00393541
0.00393539
0.00393538
0.00393537
0.00393541
0.00393542
0.00393544
0.00393546
0.00393548
0.00393552
0.00393556
0.00393561
0.00393567
0.00393573
0.00393579
0.00393587
0.00393595
0.00393603
0.00393612
0.00393621
0.00393631
0.00393641
0.00393651
0.00393662
0.00393673
0.00393684
0.00393696
0.00393707
0.00393719
0.0039373
0.00393742
0.00393753
0.00393765
0.00393776
0.00393787
0.00393798
0.00393809
0.00393819
0.00393829
0.00393838
0.00393847
0.00393856
0.00393864
0.00393871
0.00393878
0.00393885
0.0039389
0.00393895
0.003939
0.00393903
0.00393906
0.00393908
0.0039391
0.00393911
0.00393911
0.0039391
0.00393909
0.00393906
0.00393904
0.003939
0.00393896
0.00393891
0.00393885
0.00393879
0.00393872
0.00393865
0.00393857
0.00393848
0.00393839
0.0039383
0.0039382
0.0039381
0.00393799
0.00393788
0.00393777
0.00393766
0.00393755
0.00393743
0.00393731
0.0039372
0.00393708
0.00393697
0.00393685
0.00393674
0.00393663
0.00393652
0.00393642
0.00393632
0.00393622
0.00393612
0.00393603
0.00393595
0.00393587
0.0039358
0.00393573
0.00393567
0.00393561
0.00393556
0.00393552
0.00393549
0.00393546
0.00393544
0.00393542
0.00393542
0.00393547
0.00393547
0.00393549
0.00393551
0.00393554
0.00393557
0.00393562
0.00393567
0.00393572
0.00393578
0.00393585
0.00393593
0.003936
0.00393609
0.00393618
0.00393627
0.00393637
0.00393647
0.00393658
0.00393668
0.00393679
0.00393691
0.00393702
0.00393714
0.00393725
0.00393737
0.00393749
0.00393761
0.00393772
0.00393783
0.00393795
0.00393806
0.00393816
0.00393827
0.00393837
0.00393846
0.00393855
0.00393864
0.00393872
0.00393879
0.00393886
0.00393893
0.00393898
0.00393903
0.00393908
0.00393911
0.00393914
0.00393917
0.00393918
0.00393919
0.00393919
0.00393918
0.00393917
0.00393915
0.00393912
0.00393908
0.00393904
0.00393899
0.00393893
0.00393887
0.0039388
0.00393873
0.00393865
0.00393856
0.00393847
0.00393837
0.00393828
0.00393817
0.00393807
0.00393796
0.00393785
0.00393773
0.00393762
0.0039375
0.00393738
0.00393727
0.00393715
0.00393703
0.00393692
0.0039368
0.00393669
0.00393658
0.00393648
0.00393638
0.00393628
0.00393618
0.00393609
0.00393601
0.00393593
0.00393586
0.00393579
0.00393572
0.00393567
0.00393562
0.00393558
0.00393554
0.00393551
0.00393549
0.00393548
0.00393547
0.00393553
0.00393553
0.00393555
0.00393557
0.0039356
0.00393563
0.00393568
0.00393573
0.00393578
0.00393585
0.00393591
0.00393599
0.00393607
0.00393615
0.00393624
0.00393634
0.00393644
0.00393654
0.00393665
0.00393676
0.00393687
0.00393698
0.0039371
0.00393721
0.00393733
0.00393745
0.00393757
0.00393769
0.0039378
0.00393792
0.00393803
0.00393814
0.00393825
0.00393835
0.00393845
0.00393855
0.00393864
0.00393873
0.00393881
0.00393888
0.00393895
0.00393902
0.00393907
0.00393913
0.00393917
0.00393921
0.00393924
0.00393926
0.00393927
0.00393928
0.00393928
0.00393928
0.00393926
0.00393924
0.00393921
0.00393917
0.00393913
0.00393908
0.00393902
0.00393896
0.00393889
0.00393882
0.00393873
0.00393865
0.00393856
0.00393846
0.00393836
0.00393826
0.00393815
0.00393804
0.00393793
0.00393781
0.0039377
0.00393758
0.00393746
0.00393734
0.00393722
0.00393711
0.00393699
0.00393688
0.00393676
0.00393665
0.00393655
0.00393645
0.00393635
0.00393625
0.00393616
0.00393607
0.00393599
0.00393592
0.00393585
0.00393579
0.00393573
0.00393568
0.00393564
0.0039356
0.00393557
0.00393555
0.00393554
0.00393553
0.00393559
0.0039356
0.00393561
0.00393564
0.00393567
0.0039357
0.00393574
0.00393579
0.00393585
0.00393591
0.00393598
0.00393606
0.00393614
0.00393623
0.00393632
0.00393641
0.00393651
0.00393662
0.00393672
0.00393683
0.00393695
0.00393706
0.00393718
0.0039373
0.00393742
0.00393753
0.00393765
0.00393777
0.00393789
0.00393801
0.00393812
0.00393823
0.00393834
0.00393844
0.00393855
0.00393864
0.00393874
0.00393882
0.00393891
0.00393898
0.00393905
0.00393912
0.00393917
0.00393923
0.00393927
0.00393931
0.00393934
0.00393936
0.00393938
0.00393938
0.00393938
0.00393938
0.00393936
0.00393934
0.00393931
0.00393927
0.00393923
0.00393918
0.00393912
0.00393906
0.00393899
0.00393891
0.00393883
0.00393874
0.00393865
0.00393856
0.00393845
0.00393835
0.00393824
0.00393813
0.00393802
0.0039379
0.00393778
0.00393767
0.00393755
0.00393743
0.00393731
0.00393719
0.00393707
0.00393696
0.00393684
0.00393673
0.00393662
0.00393652
0.00393642
0.00393632
0.00393623
0.00393615
0.00393606
0.00393599
0.00393592
0.00393586
0.0039358
0.00393575
0.0039357
0.00393567
0.00393564
0.00393562
0.0039356
0.00393559
0.00393566
0.00393567
0.00393568
0.00393571
0.00393574
0.00393577
0.00393582
0.00393587
0.00393593
0.00393599
0.00393606
0.00393613
0.00393622
0.0039363
0.0039364
0.00393649
0.00393659
0.0039367
0.00393681
0.00393692
0.00393703
0.00393715
0.00393727
0.00393739
0.00393751
0.00393763
0.00393775
0.00393787
0.00393799
0.0039381
0.00393822
0.00393833
0.00393844
0.00393855
0.00393865
0.00393875
0.00393884
0.00393893
0.00393901
0.00393909
0.00393916
0.00393922
0.00393928
0.00393933
0.00393938
0.00393942
0.00393945
0.00393947
0.00393948
0.00393949
0.00393949
0.00393949
0.00393947
0.00393945
0.00393942
0.00393938
0.00393934
0.00393929
0.00393923
0.00393917
0.0039391
0.00393902
0.00393894
0.00393885
0.00393876
0.00393866
0.00393856
0.00393845
0.00393834
0.00393823
0.00393811
0.003938
0.00393788
0.00393776
0.00393764
0.00393752
0.0039374
0.00393728
0.00393716
0.00393704
0.00393693
0.00393682
0.00393671
0.0039366
0.0039365
0.0039364
0.00393631
0.00393622
0.00393614
0.00393606
0.00393599
0.00393593
0.00393587
0.00393582
0.00393578
0.00393574
0.00393571
0.00393569
0.00393567
0.00393566
0.00393574
0.00393575
0.00393576
0.00393578
0.00393581
0.00393585
0.00393589
0.00393595
0.003936
0.00393607
0.00393614
0.00393622
0.0039363
0.00393639
0.00393648
0.00393658
0.00393668
0.00393679
0.0039369
0.00393701
0.00393712
0.00393724
0.00393736
0.00393748
0.0039376
0.00393773
0.00393785
0.00393797
0.00393809
0.00393821
0.00393832
0.00393844
0.00393855
0.00393865
0.00393876
0.00393886
0.00393895
0.00393904
0.00393912
0.0039392
0.00393927
0.00393934
0.0039394
0.00393945
0.00393949
0.00393953
0.00393956
0.00393959
0.0039396
0.00393961
0.00393961
0.0039396
0.00393959
0.00393957
0.00393954
0.0039395
0.00393945
0.0039394
0.00393935
0.00393928
0.00393921
0.00393913
0.00393905
0.00393896
0.00393887
0.00393877
0.00393866
0.00393856
0.00393845
0.00393833
0.00393822
0.0039381
0.00393798
0.00393786
0.00393774
0.00393762
0.00393749
0.00393737
0.00393725
0.00393714
0.00393702
0.00393691
0.0039368
0.00393669
0.00393659
0.00393649
0.00393639
0.00393631
0.00393622
0.00393615
0.00393607
0.00393601
0.00393595
0.0039359
0.00393585
0.00393582
0.00393579
0.00393576
0.00393575
0.00393574
0.00393582
0.00393583
0.00393584
0.00393587
0.0039359
0.00393593
0.00393598
0.00393603
0.00393609
0.00393615
0.00393623
0.0039363
0.00393639
0.00393648
0.00393657
0.00393667
0.00393677
0.00393688
0.00393699
0.00393711
0.00393722
0.00393734
0.00393746
0.00393759
0.00393771
0.00393783
0.00393795
0.00393808
0.0039382
0.00393832
0.00393844
0.00393855
0.00393866
0.00393877
0.00393887
0.00393897
0.00393907
0.00393916
0.00393924
0.00393932
0.00393939
0.00393946
0.00393952
0.00393957
0.00393962
0.00393965
0.00393968
0.00393971
0.00393972
0.00393973
0.00393973
0.00393973
0.00393971
0.00393969
0.00393966
0.00393962
0.00393958
0.00393953
0.00393947
0.0039394
0.00393933
0.00393925
0.00393917
0.00393908
0.00393898
0.00393888
0.00393878
0.00393867
0.00393856
0.00393845
0.00393833
0.00393821
0.00393809
0.00393797
0.00393784
0.00393772
0.0039376
0.00393748
0.00393735
0.00393723
0.00393712
0.003937
0.00393689
0.00393678
0.00393668
0.00393658
0.00393648
0.00393639
0.00393631
0.00393623
0.00393616
0.00393609
0.00393603
0.00393598
0.00393594
0.0039359
0.00393587
0.00393584
0.00393583
0.00393582
0.00393591
0.00393591
0.00393593
0.00393595
0.00393598
0.00393602
0.00393607
0.00393612
0.00393618
0.00393624
0.00393632
0.0039364
0.00393648
0.00393657
0.00393667
0.00393677
0.00393687
0.00393698
0.00393709
0.00393721
0.00393733
0.00393745
0.00393757
0.00393769
0.00393782
0.00393794
0.00393807
0.00393819
0.00393831
0.00393843
0.00393855
0.00393867
0.00393878
0.00393889
0.003939
0.0039391
0.00393919
0.00393928
0.00393937
0.00393945
0.00393952
0.00393959
0.00393965
0.0039397
0.00393974
0.00393978
0.00393981
0.00393984
0.00393985
0.00393986
0.00393986
0.00393985
0.00393984
0.00393982
0.00393979
0.00393975
0.0039397
0.00393965
0.00393959
0.00393953
0.00393946
0.00393938
0.00393929
0.0039392
0.00393911
0.00393901
0.0039389
0.00393879
0.00393868
0.00393856
0.00393845
0.00393833
0.0039382
0.00393808
0.00393796
0.00393783
0.00393771
0.00393758
0.00393746
0.00393734
0.00393722
0.0039371
0.00393699
0.00393688
0.00393678
0.00393667
0.00393658
0.00393649
0.0039364
0.00393632
0.00393625
0.00393618
0.00393612
0.00393607
0.00393602
0.00393599
0.00393595
0.00393593
0.00393591
0.00393591
0.003936
0.003936
0.00393602
0.00393604
0.00393607
0.00393611
0.00393616
0.00393621
0.00393627
0.00393634
0.00393641
0.00393649
0.00393658
0.00393667
0.00393677
0.00393687
0.00393697
0.00393708
0.0039372
0.00393732
0.00393744
0.00393756
0.00393768
0.00393781
0.00393793
0.00393806
0.00393819
0.00393831
0.00393843
0.00393856
0.00393868
0.00393879
0.00393891
0.00393902
0.00393912
0.00393923
0.00393932
0.00393941
0.0039395
0.00393958
0.00393965
0.00393972
0.00393978
0.00393983
0.00393988
0.00393992
0.00393995
0.00393997
0.00393999
0.00394
0.00394
0.00393999
0.00393997
0.00393995
0.00393992
0.00393988
0.00393984
0.00393979
0.00393973
0.00393966
0.00393959
0.00393951
0.00393942
0.00393933
0.00393924
0.00393913
0.00393903
0.00393892
0.0039388
0.00393869
0.00393857
0.00393845
0.00393832
0.0039382
0.00393807
0.00393795
0.00393782
0.00393769
0.00393757
0.00393745
0.00393733
0.00393721
0.0039371
0.00393698
0.00393688
0.00393678
0.00393668
0.00393659
0.0039365
0.00393642
0.00393634
0.00393628
0.00393622
0.00393616
0.00393612
0.00393608
0.00393605
0.00393602
0.00393601
0.003936
0.00393609
0.0039361
0.00393611
0.00393614
0.00393617
0.00393621
0.00393625
0.00393631
0.00393637
0.00393644
0.00393651
0.00393659
0.00393668
0.00393677
0.00393687
0.00393697
0.00393708
0.00393719
0.00393731
0.00393743
0.00393755
0.00393767
0.0039378
0.00393793
0.00393805
0.00393818
0.00393831
0.00393844
0.00393856
0.00393868
0.00393881
0.00393892
0.00393904
0.00393915
0.00393926
0.00393936
0.00393946
0.00393955
0.00393964
0.00393972
0.00393979
0.00393986
0.00393992
0.00393997
0.00394002
0.00394006
0.00394009
0.00394011
0.00394013
0.00394013
0.00394013
0.00394013
0.00394011
0.00394009
0.00394006
0.00394002
0.00393998
0.00393992
0.00393986
0.0039398
0.00393972
0.00393964
0.00393956
0.00393947
0.00393937
0.00393927
0.00393916
0.00393905
0.00393893
0.00393882
0.0039387
0.00393857
0.00393845
0.00393832
0.00393819
0.00393807
0.00393794
0.00393781
0.00393769
0.00393756
0.00393744
0.00393732
0.00393721
0.00393709
0.00393698
0.00393688
0.00393678
0.00393669
0.0039366
0.00393652
0.00393644
0.00393638
0.00393631
0.00393626
0.00393621
0.00393617
0.00393614
0.00393612
0.0039361
0.00393609
0.00393619
0.00393619
0.00393621
0.00393624
0.00393627
0.00393631
0.00393635
0.00393641
0.00393647
0.00393654
0.00393662
0.0039367
0.00393679
0.00393688
0.00393698
0.00393708
0.00393719
0.00393731
0.00393742
0.00393754
0.00393767
0.00393779
0.00393792
0.00393805
0.00393818
0.00393831
0.00393844
0.00393857
0.00393869
0.00393882
0.00393894
0.00393906
0.00393917
0.00393929
0.00393939
0.0039395
0.0039396
0.00393969
0.00393978
0.00393986
0.00393993
0.00394
0.00394006
0.00394311
0.00394316
0.0039432
0.00394323
0.00394325
0.00394327
0.00394328
0.00394328
0.00394327
0.00394325
0.00394323
0.0039432
0.00394316
0.00394312
0.00394006
0.00394
0.00393994
0.00393986
0.00393978
0.0039397
0.00393961
0.00393951
0.0039394
0.0039393
0.00393919
0.00393907
0.00393895
0.00393883
0.0039387
0.00393858
0.00393845
0.00393832
0.00393819
0.00393806
0.00393793
0.00393781
0.00393768
0.00393756
0.00393744
0.00393732
0.00393721
0.0039371
0.00393699
0.00393689
0.0039368
0.00393671
0.00393662
0.00393655
0.00393648
0.00393641
0.00393636
0.00393631
0.00393627
0.00393624
0.00393621
0.0039362
0.00393619
0.00393629
0.0039363
0.00393631
0.00393634
0.00393637
0.00393641
0.00393646
0.00393651
0.00393658
0.00393665
0.00393672
0.00393681
0.0039369
0.00393699
0.00393709
0.0039372
0.00393731
0.00393742
0.00393754
0.00393767
0.00393779
0.00393792
0.00393805
0.00393818
0.00393831
0.00393844
0.00393857
0.0039387
0.00393883
0.00393895
0.00393908
0.0039392
0.00393931
0.00393943
0.00393954
0.00393964
0.00393974
0.00393983
0.00393992
0.003943
0.00394307
0.00394314
0.0039432
0.00394326
0.0039433
0.00394334
0.00394337
0.0039434
0.00394341
0.00394342
0.00394342
0.00394341
0.0039434
0.00394337
0.00394334
0.00394331
0.00394326
0.00394321
0.00394315
0.00394308
0.00394301
0.00393993
0.00393984
0.00393975
0.00393965
0.00393955
0.00393944
0.00393932
0.00393921
0.00393909
0.00393896
0.00393884
0.00393871
0.00393858
0.00393845
0.00393832
0.00393819
0.00393806
0.00393793
0.0039378
0.00393768
0.00393756
0.00393744
0.00393732
0.00393721
0.0039371
0.003937
0.00393691
0.00393681
0.00393673
0.00393665
0.00393658
0.00393652
0.00393646
0.00393641
0.00393637
0.00393634
0.00393631
0.0039363
0.00393629
0.00393639
0.0039364
0.00393642
0.00393644
0.00393647
0.00393652
0.00393656
0.00393662
0.00393668
0.00393676
0.00393683
0.00393692
0.00393701
0.00393711
0.00393721
0.00393732
0.00393743
0.00393754
0.00393767
0.00393779
0.00393792
0.00393804
0.00393817
0.00393831
0.00393844
0.00393857
0.0039387
0.00393883
0.00393896
0.00393909
0.00393922
0.00393934
0.00393946
0.00393957
0.00393968
0.00393978
0.00393988
0.00394298
0.00394306
0.00394314
0.00394322
0.00394329
0.00394335
0.0039434
0.00394345
0.00394349
0.00394352
0.00394354
0.00394356
0.00394356
0.00394357
0.00394356
0.00394354
0.00394352
0.00394349
0.00394345
0.00394341
0.00394335
0.00394329
0.00394323
0.00394315
0.00394307
0.00394298
0.00393989
0.00393979
0.00393969
0.00393958
0.00393947
0.00393935
0.00393923
0.0039391
0.00393897
0.00393885
0.00393871
0.00393858
0.00393845
0.00393832
0.00393819
0.00393806
0.00393793
0.0039378
0.00393768
0.00393756
0.00393744
0.00393733
0.00393722
0.00393712
0.00393702
0.00393693
0.00393684
0.00393676
0.00393669
0.00393663
0.00393657
0.00393652
0.00393648
0.00393644
0.00393642
0.0039364
0.00393639
0.0039365
0.00393651
0.00393652
0.00393655
0.00393658
0.00393662
0.00393667
0.00393673
0.00393679
0.00393687
0.00393695
0.00393703
0.00393712
0.00393722
0.00393733
0.00393744
0.00393755
0.00393767
0.00393779
0.00393792
0.00393804
0.00393817
0.00393831
0.00393844
0.00393857
0.00393871
0.00393884
0.00393897
0.0039391
0.00393923
0.00393936
0.00393948
0.0039396
0.00393971
0.00394282
0.00394293
0.00394303
0.00394312
0.00394321
0.00394329
0.00394336
0.00394343
0.00394349
0.00394355
0.00394359
0.00394363
0.00394366
0.00394369
0.0039437
0.00394371
0.00394371
0.0039437
0.00394369
0.00394367
0.00394364
0.0039436
0.00394355
0.0039435
0.00394344
0.00394337
0.0039433
0.00394322
0.00394313
0.00394304
0.00394294
0.00394283
0.00393972
0.00393961
0.00393949
0.00393937
0.00393924
0.00393911
0.00393898
0.00393885
0.00393872
0.00393859
0.00393845
0.00393832
0.00393819
0.00393806
0.00393793
0.0039378
0.00393768
0.00393756
0.00393745
0.00393734
0.00393723
0.00393713
0.00393704
0.00393695
0.00393687
0.0039368
0.00393674
0.00393668
0.00393663
0.00393658
0.00393655
0.00393653
0.00393651
0.0039365
0.00393661
0.00393661
0.00393663
0.00393666
0.00393669
0.00393673
0.00393678
0.00393684
0.00393691
0.00393698
0.00393706
0.00393715
0.00393724
0.00393734
0.00393745
0.00393756
0.00393767
0.00393779
0.00393792
0.00393804
0.00393817
0.00393831
0.00393844
0.00393857
0.00393871
0.00393885
0.00393898
0.00393911
0.00393925
0.00393938
0.0039395
0.00393963
0.00393974
0.00394286
0.00394297
0.00394307
0.00394317
0.00394327
0.00394336
0.00394344
0.00394351
0.00394358
0.00394364
0.00394369
0.00394374
0.00394378
0.00394381
0.00394383
0.00394385
0.00394385
0.00394385
0.00394385
0.00394383
0.00394381
0.00394378
0.00394374
0.0039437
0.00394364
0.00394358
0.00394352
0.00394344
0.00394336
0.00394328
0.00394318
0.00394308
0.00394298
0.00394287
0.00393975
0.00393964
0.00393951
0.00393939
0.00393926
0.00393912
0.00393899
0.00393886
0.00393872
0.00393859
0.00393845
0.00393832
0.00393819
0.00393806
0.00393793
0.0039378
0.00393768
0.00393757
0.00393746
0.00393735
0.00393725
0.00393716
0.00393707
0.00393699
0.00393691
0.00393685
0.00393679
0.00393674
0.00393669
0.00393666
0.00393663
0.00393662
0.00393661
0.00393672
0.00393673
0.00393674
0.00393677
0.0039368
0.00393685
0.0039369
0.00393696
0.00393702
0.0039371
0.00393718
0.00393727
0.00393736
0.00393746
0.00393757
0.00393768
0.0039378
0.00393792
0.00393805
0.00393817
0.00393831
0.00393844
0.00393857
0.00393871
0.00393885
0.00393899
0.00393912
0.00393926
0.00393939
0.00393952
0.00393965
0.00394277
0.00394289
0.00394301
0.00394312
0.00394322
0.00394332
0.00394341
0.0039435
0.00394358
0.00394366
0.00394372
0.00394378
0.00394384
0.00394388
0.00394392
0.00394395
0.00394397
0.00394399
0.003944
0.003944
0.00394399
0.00394398
0.00394395
0.00394392
0.00394389
0.00394384
0.00394379
0.00394373
0.00394366
0.00394359
0.00394351
0.00394342
0.00394333
0.00394323
0.00394312
0.00394301
0.0039429
0.00394278
0.00393966
0.00393953
0.0039394
0.00393927
0.00393913
0.003939
0.00393886
0.00393872
0.00393859
0.00393845
0.00393832
0.00393819
0.00393806
0.00393793
0.00393781
0.00393769
0.00393758
0.00393747
0.00393737
0.00393728
0.00393719
0.0039371
0.00393703
0.00393696
0.0039369
0.00393685
0.00393681
0.00393677
0.00393674
0.00393673
0.00393672
0.00393683
0.00393684
0.00393685
0.00393688
0.00393692
0.00393696
0.00393701
0.00393707
0.00393714
0.00393721
0.0039373
0.00393739
0.00393748
0.00393759
0.00393769
0.00393781
0.00393793
0.00393805
0.00393818
0.00393831
0.00393844
0.00393857
0.00393871
0.00393885
0.00393899
0.00393913
0.00393926
0.0039394
0.00393953
0.00393966
0.00394279
0.00394292
0.00394304
0.00394315
0.00394326
0.00394337
0.00394346
0.00394356
0.00394364
0.00394373
0.0039438
0.00394387
0.00394392
0.00394398
0.00394402
0.00394406
0.00394409
0.00394411
0.00394413
0.00394414
0.00394414
0.00394413
0.00394412
0.00394409
0.00394406
0.00394403
0.00394398
0.00394393
0.00394387
0.0039438
0.00394373
0.00394365
0.00394357
0.00394347
0.00394337
0.00394327
0.00394316
0.00394304
0.00394292
0.0039428
0.00393967
0.00393954
0.00393941
0.00393927
0.00393914
0.003939
0.00393886
0.00393872
0.00393859
0.00393845
0.00393832
0.00393819
0.00393806
0.00393794
0.00393782
0.0039377
0.00393759
0.00393749
0.00393739
0.0039373
0.00393722
0.00393714
0.00393708
0.00393701
0.00393696
0.00393692
0.00393688
0.00393686
0.00393684
0.00393683
0.00393694
0.00393695
0.00393697
0.00393699
0.00393703
0.00393707
0.00393713
0.00393719
0.00393725
0.00393733
0.00393742
0.00393751
0.0039376
0.00393771
0.00393782
0.00393793
0.00393805
0.00393818
0.00393831
0.00393844
0.00393857
0.00393871
0.00393885
0.00393899
0.00393913
0.00393927
0.0039394
0.00393954
0.00393968
0.00394281
0.00394294
0.00394306
0.00394318
0.00394329
0.0039434
0.00394351
0.00394361
0.0039437
0.00394379
0.00394387
0.00394394
0.00394401
0.00394406
0.00394412
0.00394416
0.0039442
0.00394423
0.00394425
0.00394427
0.00394427
0.00394427
0.00394427
0.00394425
0.00394423
0.0039442
0.00394416
0.00394412
0.00394407
0.00394401
0.00394395
0.00394387
0.00394379
0.00394371
0.00394362
0.00394352
0.00394341
0.0039433
0.00394319
0.00394307
0.00394294
0.00394282
0.00393968
0.00393955
0.00393941
0.00393928
0.00393914
0.003939
0.00393886
0.00393872
0.00393858
0.00393845
0.00393832
0.00393819
0.00393806
0.00393794
0.00393783
0.00393772
0.00393761
0.00393751
0.00393742
0.00393734
0.00393726
0.00393719
0.00393713
0.00393707
0.00393703
0.00393699
0.00393697
0.00393695
0.00393694
0.00393705
0.00393706
0.00393708
0.00393711
0.00393714
0.00393719
0.00393724
0.0039373
0.00393737
0.00393745
0.00393753
0.00393763
0.00393773
0.00393783
0.00393794
0.00393806
0.00393818
0.00393831
0.00393844
0.00393857
0.00393871
0.00393885
0.00393899
0.00393913
0.00393927
0.00393941
0.00393955
0.00394268
0.00394282
0.00394295
0.00394308
0.0039432
0.00394332
0.00394344
0.00394355
0.00394365
0.00394375
0.00394384
0.00394393
0.003944
0.00394408
0.00394414
0.0039442
0.00394425
0.0039443
0.00394433
0.00394436
0.00394438
0.0039444
0.00394441
0.00394441
0.0039444
0.00394439
0.00394436
0.00394434
0.0039443
0.00394426
0.0039442
0.00394415
0.00394408
0.00394401
0.00394393
0.00394385
0.00394376
0.00394366
0.00394355
0.00394344
0.00394333
0.00394321
0.00394309
0.00394296
0.00394283
0.00394269
0.00393955
0.00393942
0.00393928
0.00393914
0.003939
0.00393886
0.00393872
0.00393858
0.00393845
0.00393832
0.00393819
0.00393807
0.00393795
0.00393784
0.00393773
0.00393763
0.00393754
0.00393746
0.00393738
0.00393731
0.00393724
0.00393719
0.00393714
0.00393711
0.00393708
0.00393706
0.00393705
0.00393717
0.00393717
0.00393719
0.00393722
0.00393726
0.0039373
0.00393736
0.00393742
0.00393749
0.00393757
0.00393765
0.00393775
0.00393785
0.00393795
0.00393807
0.00393819
0.00393831
0.00393844
0.00393857
0.0039387
0.00393884
0.00393898
0.00393912
0.00393926
0.0039394
0.00393955
0.00394269
0.00394282
0.00394296
0.00394309
0.00394322
0.00394334
0.00394346
0.00394358
0.00394368
0.00394379
0.00394389
0.00394398
0.00394406
0.00394414
0.00394421
0.00394427
0.00394433
0.00394438
0.00394443
0.00394446
0.00394449
0.00394451
0.00394453
0.00394454
0.00394454
0.00394453
0.00394451
0.00394449
0.00394446
0.00394443
0.00394439
0.00394434
0.00394428
0.00394422
0.00394414
0.00394407
0.00394398
0.00394389
0.0039438
0.00394369
0.00394358
0.00394347
0.00394335
0.00394323
0.0039431
0.00394297
0.00394283